<?xml version='1.0' encoding='UTF-8'?>
<VTKFile byte_order='LittleEndian' version='0.1' type = 'UnstructuredGrid'>
<UnstructuredGrid>
<FieldData>
<DataArray type='Float64' Name='Time' NumberOfComponents='1' NumberOfTuples='1' format='ascii'>
3.881
</DataArray>
</FieldData>
<Piece NumberOfCells='808' NumberOfPoints='808'>
<Points>
<DataArray NumberOfComponents='3' type='Float64' Name='position' format='ascii'>
-0.00174074 -0.000572589 0
-0.000344818 0.0251283 0
-0.00228806 0.0484536 0
-0.0033081 0.0795779 0
-0.00385936 0.0987906 0
-0.000447707 0.125096 0
-0.00207588 0.15227 0
-0.00515465 0.176955 0
0.0250193 -0.000901088 0
0.049873 -0.000197948 0
0.0751277 -0.00137227 0
0.0971831 -0.00167079 0
0.124556 -0.002637 0
0.153243 -0.00380156 0
0.177042 -0.00478918 0
0.20073 -0.0134036 0
0.213786 -0.00788993 0
0.246427 -0.0113176 0
0.255763 -0.018152 0
0.293961 -0.0234784 0
0.31723 -0.0356452 0
0.33407 -0.00148951 0
0.34194 -0.222801 0
0.400781 -0.181185 0
0.413723 -0.214283 0
0.448628 -0.238232 0
0.482048 -0.238348 0
0.480852 -0.26646 0
0.513728 -0.273864 0
0.566672 -0.288279 0
0.580183 -0.305683 0
0.57325 -0.335671 0
0.615767 -0.363293 0
0.639502 -0.384638 0
0.675443 -0.418353 0
0.687262 -0.429368 0
0.7219 -0.429498 0
0.73043 -0.435927 0
0.786292 -0.466263 0
0.804677 -0.484751 0
0.811244 -0.543972 0
0.868272 -0.550793 0
0.870447 -0.563802 0
0.909333 -0.575205 0
0.926855 -0.590657 0
0.933383 -0.62558 0
0.983753 -0.641913 0
1.01178 -0.642304 0
1.02301 -0.684597 0
1.06942 -0.697 0
1.06192 -0.690386 0
1.08546 -0.724417 0
1.1226 -0.74824 0
1.16063 -0.79342 0
1.18676 -0.80162 0
1.21433 -0.801212 0
1.23954 -0.815411 0
1.24583 -0.838067 0
1.2759 -0.853587 0
1.31142 -0.85415 0
1.32272 -0.862876 0
1.33183 -0.886133 0
1.37242 -0.909965 0
1.40448 -0.925033 0
1.42938 -0.93677 0
1.44041 -0.94313 0
1.47426 -0.964683 0
1.50664 -0.983993 0
1.51848 -0.988428 0
1.53892 -0.99719 0
1.5736 -1.01841 0
1.60018 -1.03485 0
1.61794 -1.04031 0
1.64074 -1.04915 0
1.66931 -1.06763 0
1.69711 -1.08528 0
1.7217 -1.09638 0
1.74337 -1.105 0
1.76573 -1.11642 0
1.7929 -1.13047 0
1.82149 -1.14403 0
1.84484 -1.15529 0
1.8648 -1.16452 0
1.88861 -1.17392 0
1.91765 -1.18571 0
1.94623 -1.19839 0
1.96991 -1.2077 0
1.99088 -1.21329 0
2.01428 -1.21874 0
2.04117 -1.22683 0
2.06889 -1.23674 0
2.09563 -1.24523 0
2.1209 -1.25067 0
2.14459 -1.25432 0
2.16785 -1.25826 0
2.19274 -1.26351 0
2.21928 -1.26918 0
2.24563 -1.27443 0
2.27067 -1.27892 0
2.29487 -1.2827 0
2.31925 -1.2861 0
2.34404 -1.28954 0
2.369 -1.29292 0
2.39379 -1.29597 0
2.41842 -1.29834 0
2.44315 -1.29986 0
2.46807 -1.30067 0
2.49308 -1.30103 0
0.0183597 0.0202818 0
0.0548735 0.0343159 0
0.076636 0.0115694 0
0.0980904 0.0162848 0
0.124838 0.0204761 0
0.16717 0.0128194 0
0.179438 0.021899 0
0.207713 0.00883966 0
0.233513 0.0148246 0
0.258296 0.0153427 0
0.277062 0.00573594 0
0.28678 -0.0161537 0
0.32543 -0.0181552 0
0.349243 -0.0180153 0
0.359624 -0.130137 0
0.394093 -0.137756 0
0.414558 -0.166096 0
0.442931 -0.201727 0
0.469682 -0.205136 0
0.490331 -0.222988 0
0.515907 -0.230815 0
0.540808 -0.259507 0
0.563845 -0.255071 0
0.596965 -0.287136 0
0.607666 -0.335448 0
0.635227 -0.331808 0
0.668531 -0.378688 0
0.690513 -0.385226 0
0.718559 -0.406773 0
0.772828 -0.434502 0
0.776244 -0.465752 0
0.805067 -0.469296 0
0.810573 -0.501439 0
0.851569 -0.531218 0
0.883801 -0.550132 0
0.90825 -0.555555 0
0.920822 -0.579184 0
0.940639 -0.597535 0
0.973644 -0.628346 0
0.99987 -0.636493 0
1.02843 -0.659142 0
1.04655 -0.680018 0
1.08387 -0.671208 0
1.08942 -0.714661 0
1.12866 -0.740284 0
1.1508 -0.747239 0
1.17886 -0.757099 0
1.20033 -0.774381 0
1.2302 -0.791849 0
1.25784 -0.816332 0
1.27542 -0.827185 0
1.30612 -0.833201 0
1.32645 -0.845704 0
1.34022 -0.862741 0
1.36863 -0.883235 0
1.40484 -0.896781 0
1.42585 -0.905163 0
1.44314 -0.92179 0
1.47436 -0.942171 0
1.5013 -0.951904 0
1.51609 -0.958313 0
1.54022 -0.974513 0
1.57429 -0.993931 0
1.59938 -1.00657 0
1.61745 -1.01506 0
1.64143 -1.02763 0
1.66992 -1.044 0
1.69639 -1.05921 0
1.72021 -1.06996 0
1.74312 -1.08009 0
1.76722 -1.09305 0
1.79356 -1.10667 0
1.81994 -1.11885 0
1.84369 -1.12978 0
1.86593 -1.14002 0
1.89025 -1.15046 0
1.91752 -1.16177 0
1.94451 -1.17269 0
1.96869 -1.18147 0
1.99156 -1.18817 0
2.01577 -1.19485 0
2.04175 -1.20325 0
2.06843 -1.21245 0
2.09485 -1.22001 0
2.12026 -1.22501 0
2.14443 -1.22894 0
2.16837 -1.23357 0
2.19339 -1.2391 0
2.21943 -1.2447 0
2.24527 -1.24943 0
2.27028 -1.25362 0
2.29479 -1.25742 0
2.31936 -1.26108 0
2.34415 -1.26463 0
2.36899 -1.26792 0
2.39373 -1.27084 0
2.41842 -1.2732 0
2.44319 -1.27481 0
2.4681 -1.27569 0
2.49309 -1.27607 0
0.01749 0.0436753 0
0.0433539 0.0476161 0
0.0697704 0.0535042 0
0.0998417 0.0548024 0
0.128254 0.0392327 0
0.160792 0.0419159 0
0.170047 0.0459555 0
0.190801 0.0326356 0
0.223612 0.0336926 0
0.243818 0.0224037 0
0.277342 0.0248506 0
0.292047 0.0223635 0
0.310977 0.00417664 0
0.340403 -0.0226902 0
0.352308 -0.0719715 0
0.408391 -0.102974 0
0.436973 -0.107568 0
0.440807 -0.174718 0
0.452416 -0.190287 0
0.492716 -0.189475 0
0.509038 -0.220094 0
0.555847 -0.242892 0
0.57106 -0.247048 0
0.575372 -0.268062 0
0.631975 -0.29045 0
0.638487 -0.308591 0
0.67139 -0.339023 0
0.696643 -0.340895 0
0.683955 -0.365126 0
0.757128 -0.417807 0
0.79105 -0.43887 0
0.804726 -0.449941 0
0.843117 -0.468007 0
0.843493 -0.480665 0
0.875478 -0.504524 0
0.906006 -0.523468 0
0.919902 -0.555795 0
0.950355 -0.549951 0
0.967913 -0.602383 0
0.994054 -0.593088 0
1.03421 -0.619716 0
1.05003 -0.638914 0
1.06317 -0.654338 0
1.1065 -0.694903 0
1.11781 -0.720891 0
1.16075 -0.717481 0
1.17678 -0.721001 0
1.194 -0.748609 0
1.23164 -0.77073 0
1.25993 -0.788113 0
1.28034 -0.799711 0
1.30079 -0.809489 0
1.32664 -0.824794 0
1.34856 -0.84035 0
1.36828 -0.855677 0
1.39796 -0.868787 0
1.42714 -0.882883 0
1.44887 -0.90034 0
1.47229 -0.914412 0
1.49622 -0.922385 0
1.51744 -0.935307 0
1.54272 -0.951724 0
1.57254 -0.966827 0
1.59808 -0.979797 0
1.61855 -0.991472 0
1.64184 -1.00482 0
1.66976 -1.01998 0
1.69629 -1.03309 0
1.71926 -1.04396 0
1.74269 -1.05555 0
1.76818 -1.06853 0
1.79401 -1.08203 0
1.81907 -1.09426 0
1.8431 -1.10487 0
1.86656 -1.11531 0
1.89125 -1.12617 0
1.9175 -1.13694 0
1.94328 -1.14713 0
1.96774 -1.15604 0
1.99208 -1.16348 0
2.01694 -1.17085 0
2.04224 -1.17923 0
2.06807 -1.18768 0
2.09417 -1.19454 0
2.11968 -1.1995 0
2.14427 -1.20381 0
2.16879 -1.20904 0
2.19399 -1.21466 0
2.21964 -1.21996 0
2.24503 -1.22423 0
2.26992 -1.22821 0
2.29465 -1.2322 0
2.31944 -1.23609 0
2.34425 -1.23967 0
2.36901 -1.24287 0
2.3937 -1.24574 0
2.41841 -1.24814 0
2.44323 -1.24982 0
2.46813 -1.25074 0
2.49309 -1.25113 0
0.0393783 0.0674514 0
0.05224 0.0746101 0
0.0493523 0.0650361 0
0.0891661 0.0684618 0
0.108923 0.0595354 0
0.1516 0.0587924 0
0.165261 0.0640285 0
0.198888 0.0614015 0
0.213938 0.0562844 0
0.250874 0.0312147 0
0.261641 0.0284922 0
0.287737 0.013135 0
0.30711 0.0167789 0
0.344978 -0.00896124 0
0.339553 -0.0460696 0
0.397519 -0.0781001 0
0.40688 -0.0871682 0
0.446108 -0.128425 0
0.458472 -0.132325 0
0.489045 -0.155904 0
0.511407 -0.179876 0
0.556275 -0.199131 0
0.563195 -0.2157 0
0.589095 -0.256903 0
0.615323 -0.256132 0
0.6253 -0.276449 0
0.656644 -0.298607 0
0.701344 -0.323024 0
0.717384 -0.373438 0
0.73344 -0.374806 0
0.7745 -0.415122 0
0.808065 -0.423512 0
0.829034 -0.444994 0
0.86305 -0.459066 0
0.885507 -0.498697 0
0.902453 -0.500201 0
0.935611 -0.518593 0
0.959223 -0.541402 0
0.97091 -0.579413 0
1.00149 -0.549354 0
1.03336 -0.585274 0
1.05448 -0.623059 0
1.08051 -0.621564 0
1.10666 -0.639239 0
1.12616 -0.680941 0
1.15446 -0.688103 0
1.18755 -0.707745 0
1.21265 -0.748528 0
1.2346 -0.742558 0
1.25142 -0.747051 0
1.27732 -0.774596 0
1.30341 -0.789178 0
1.32686 -0.797911 0
1.34811 -0.814686 0
1.37128 -0.834546 0
1.39957 -0.844629 0
1.42506 -0.856592 0
1.44691 -0.876056 0
1.47218 -0.887855 0
1.49721 -0.895254 0
1.51835 -0.912231 0
1.54318 -0.930383 0
1.57187 -0.940325 0
1.59653 -0.951898 0
1.61838 -0.968463 0
1.643 -0.982026 0
1.66996 -0.993813 0
1.69564 -1.0075 0
1.71893 -1.01941 0
1.74243 -1.03033 0
1.76835 -1.04391 0
1.79454 -1.05749 0
1.8188 -1.06916 0
1.84249 -1.08023 0
1.86688 -1.09077 0
1.89197 -1.1013 0
1.91743 -1.11188 0
1.94245 -1.1218 0
1.96717 -1.13088 0
1.99239 -1.13927 0
2.0177 -1.14682 0
2.04259 -1.15464 0
2.06778 -1.16256 0
2.09361 -1.16906 0
2.11921 -1.17408 0
2.14419 -1.179 0
2.16918 -1.18477 0
2.1945 -1.19026 0
2.21979 -1.19479 0
2.2448 -1.19878 0
2.26966 -1.20288 0
2.29457 -1.20715 0
2.31951 -1.21116 0
2.34432 -1.21467 0
2.36901 -1.2178 0
2.39368 -1.22069 0
2.41843 -1.22316 0
2.44326 -1.2249 0
2.46815 -1.22582 0
2.49308 -1.22619 0
0.00618984 0.0978748 0
0.0459098 0.0888569 0
0.072334 0.0846713 0
0.0901981 0.118325 0
0.134367 0.0921667 0
0.158084 0.0862351 0
0.169998 0.0849841 0
0.198109 0.0748162 0
0.223592 0.062629 0
0.234764 0.0436367 0
0.25917 0.0518259 0
0.290673 0.0343933 0
0.317656 0.023957 0
0.348055 0.0118018 0
0.368788 -0.0176966 0
0.381741 -0.0625763 0
0.415591 -0.072679 0
0.470022 -0.117589 0
0.471066 -0.104904 0
0.491496 -0.11224 0
0.499564 -0.138082 0
0.557696 -0.158105 0
0.577345 -0.18129 0
0.585465 -0.207806 0
0.636273 -0.239469 0
0.652986 -0.248013 0
0.665208 -0.253729 0
0.698125 -0.296234 0
0.715577 -0.329715 0
0.736993 -0.361458 0
0.773374 -0.367099 0
0.809716 -0.397671 0
0.826755 -0.399023 0
0.875187 -0.41109 0
0.880178 -0.443687 0
0.89533 -0.479151 0
0.940162 -0.50213 0
0.944476 -0.512954 0
0.967495 -0.535492 0
1.01962 -0.538441 0
1.03955 -0.554013 0
1.045 -0.583811 0
1.08706 -0.596259 0
1.10969 -0.607575 0
1.11428 -0.631805 0
1.14969 -0.661149 0
1.1917 -0.697525 0
1.21241 -0.709134 0
1.22888 -0.717919 0
1.25596 -0.728258 0
1.27721 -0.740661 0
1.29831 -0.759501 0
1.32546 -0.777399 0
1.35058 -0.793375 0
1.37531 -0.809386 0
1.40168 -0.820551 0
1.42264 -0.831541 0
1.44273 -0.846839 0
1.47188 -0.860893 0
1.50072 -0.874285 0
1.52052 -0.889673 0
1.54188 -0.903478 0
1.57052 -0.915166 0
1.59654 -0.928526 0
1.61798 -0.942854 0
1.64289 -0.95667 0
1.67082 -0.969619 0
1.69559 -0.98184 0
1.7181 -0.994259 0
1.74238 -1.0066 0
1.76864 -1.01915 0
1.79463 -1.03226 0
1.81875 -1.04442 0
1.84213 -1.05514 0
1.86683 -1.06592 0
1.8925 -1.07684 0
1.91752 -1.0869 0
1.94189 -1.09652 0
1.9669 -1.1063 0
1.99262 -1.11497 0
2.01796 -1.12243 0
2.04268 -1.12996 0
2.06763 -1.13726 0
2.09321 -1.14345 0
2.11885 -1.14897 0
2.14425 -1.15475 0
2.16957 -1.16057 0
2.19481 -1.16544 0
2.2198 -1.16941 0
2.24461 -1.17325 0
2.26952 -1.17769 0
2.29457 -1.18223 0
2.31955 -1.18621 0
2.34434 -1.18962 0
2.36901 -1.19274 0
2.39369 -1.19571 0
2.41846 -1.19825 0
2.4433 -1.19999 0
2.46815 -1.20088 0
2.49303 -1.2012 0
0.0272725 0.113568 0
0.0548578 0.128808 0
0.0653849 0.120326 0
0.0967685 0.126917 0
0.125281 0.126746 0
0.145548 0.108258 0
0.172008 0.099747 0
0.195605 0.0959953 0
0.223938 0.0961424 0
0.246202 0.0770435 0
0.259677 0.0635397 0
0.28288 0.0645369 0
0.326304 0.0559205 0
0.349199 0.0355394 0
0.371353 0.0125908 0
0.395078 -0.0205067 0
0.418489 -0.0586555 0
0.432653 -0.0751965 0
0.4863 -0.069444 0
0.515551 -0.0942921 0
0.524854 -0.121769 0
0.537317 -0.134362 0
0.571466 -0.152741 0
0.596906 -0.171674 0
0.627738 -0.197785 0
0.648063 -0.239294 0
0.664361 -0.238281 0
0.695547 -0.283272 0
0.731229 -0.301572 0
0.747019 -0.326851 0
0.794995 -0.350663 0
0.806848 -0.351388 0
0.81617 -0.382565 0
0.855016 -0.398696 0
0.876738 -0.422325 0
0.903395 -0.444414 0
0.921163 -0.461748 0
0.961805 -0.480859 0
0.983904 -0.511798 0
1.01439 -0.527571 0
1.03245 -0.541105 0
1.05163 -0.550753 0
1.08428 -0.570529 0
1.11335 -0.593929 0
1.12126 -0.612064 0
1.15255 -0.646679 0
1.19062 -0.667208 0
1.20364 -0.668617 0
1.22227 -0.686831 0
1.25959 -0.708232 0
1.2805 -0.718719 0
1.29608 -0.731748 0
1.32319 -0.749771 0
1.35267 -0.77208 0
1.3787 -0.785552 0
1.40139 -0.792689 0
1.42037 -0.806079 0
1.44307 -0.823011 0
1.47278 -0.835467 0
1.50009 -0.849102 0
1.52068 -0.865865 0
1.54298 -0.879355 0
1.57014 -0.890411 0
1.59549 -0.903371 0
1.61797 -0.917673 0
1.64313 -0.93157 0
1.67083 -0.944668 0
1.69569 -0.956789 0
1.7178 -0.969301 0
1.74209 -0.982627 0
1.76905 -0.995311 0
1.79484 -1.00706 0
1.81824 -1.01858 0
1.84173 -1.03004 0
1.86707 -1.04145 0
1.8929 -1.0524 0
1.91749 -1.06213 0
1.94162 -1.07153 0
1.96685 -1.08148 0
1.99273 -1.09056 0
2.01794 -1.09811 0
2.04254 -1.1051 0
2.06749 -1.11179 0
2.09302 -1.11795 0
2.11873 -1.12423 0
2.14434 -1.13067 0
2.16981 -1.13637 0
2.19496 -1.14041 0
2.21975 -1.14382 0
2.2445 -1.14781 0
2.26946 -1.15261 0
2.29458 -1.15729 0
2.31959 -1.16123 0
2.34436 -1.16457 0
2.36902 -1.16774 0
2.39372 -1.1708 0
2.4185 -1.17336 0
2.44332 -1.17507 0
2.46814 -1.17588 0
2.49297 -1.17613 0
0.0426448 0.154537 0
0.0380152 0.139741 0
0.0726646 0.136259 0
0.107537 0.143638 0
0.123874 0.153694 0
0.15872 0.128682 0
0.194146 0.120184 0
0.207549 0.120141 0
0.216083 0.133999 0
0.250688 0.107721 0
0.268078 0.0943753 0
0.299384 0.0783125 0
0.318319 0.0839543 0
0.341679 0.0550552 0
0.362774 0.0274876 0
0.413195 0.00749924 0
0.423183 -0.0212062 0
0.467532 -0.0283546 0
0.48523 -0.0408156 0
0.498476 -0.0684132 0
0.517679 -0.109619 0
0.552512 -0.128756 0
0.559693 -0.136612 0
0.584271 -0.157576 0
0.628596 -0.162881 0
0.654759 -0.228585 0
0.675933 -0.23378 0
0.703129 -0.254219 0
0.728447 -0.279586 0
0.745465 -0.314949 0
0.776264 -0.32773 0
0.812654 -0.337887 0
0.814827 -0.368822 0
0.871768 -0.390453 0
0.893219 -0.39408 0
0.912151 -0.433444 0
0.954141 -0.4677 0
0.981793 -0.471682 0
0.992873 -0.46991 0
1.00557 -0.506249 0
1.02523 -0.510666 0
1.05341 -0.524913 0
1.0894 -0.557453 0
1.10536 -0.564885 0
1.12122 -0.584628 0
1.15963 -0.619434 0
1.18598 -0.632644 0
1.19477 -0.637997 0
1.22224 -0.65683 0
1.25903 -0.688182 0
1.27857 -0.696547 0
1.2962 -0.70403 0
1.32477 -0.729283 0
1.35431 -0.748805 0
1.37794 -0.755911 0
1.39874 -0.76542 0
1.42131 -0.783589 0
1.44712 -0.799727 0
1.47343 -0.811291 0
1.49657 -0.824233 0
1.51917 -0.841067 0
1.54497 -0.855126 0
1.57121 -0.865894 0
1.59427 -0.877884 0
1.61749 -0.893091 0
1.64406 -0.90738 0
1.67102 -0.91928 0
1.69467 -0.931378 0
1.71724 -0.944829 0
1.74282 -0.959023 0
1.76983 -0.971818 0
1.79444 -0.981776 0
1.81727 -0.992167 0
1.84154 -1.00513 0
1.86773 -1.01762 0
1.89325 -1.02797 0
1.91716 -1.03727 0
1.94137 -1.04673 0
1.96701 -1.05666 0
1.99286 -1.06606 0
2.01778 -1.07381 0
2.04225 -1.08016 0
2.06728 -1.08621 0
2.09298 -1.09275 0
2.11882 -1.09989 0
2.14447 -1.1067 0
2.16989 -1.11179 0
2.195 -1.1152 0
2.21972 -1.11831 0
2.24442 -1.12252 0
2.26941 -1.12753 0
2.29462 -1.13235 0
2.31968 -1.13626 0
2.34442 -1.13955 0
2.36904 -1.14277 0
2.39372 -1.14591 0
2.41851 -1.1485 0
2.44333 -1.15012 0
2.46812 -1.15083 0
2.4929 -1.15098 0
0.00812724 0.166984 0
0.0531152 0.158574 0
0.0668522 0.157656 0
0.11725 0.146144 0
0.135878 0.173938 0
0.148519 0.141286 0
0.190153 0.164396 0
0.231626 0.141914 0
0.232602 0.152901 0
0.255551 0.129705 0
0.297258 0.119625 0
0.30776 0.116074 0
0.328316 0.0978787 0
0.351286 0.0578301 0
0.369711 0.0567798 0
0.385393 0.0266755 0
0.434236 0.0240814 0
0.447961 0.0113913 0
0.487112 -0.0278744 0
0.521085 -0.0616511 0
0.530548 -0.0797591 0
0.554469 -0.104493 0
0.574571 -0.118177 0
0.587538 -0.117038 0
0.626316 -0.135741 0
0.637421 -0.211009 0
0.680087 -0.207352 0
0.707535 -0.24483 0
0.726897 -0.262928 0
0.739315 -0.266999 0
0.76783 -0.30912 0
0.805531 -0.2826 0
0.849442 -0.383326 0
0.859435 -0.350465 0
0.882321 -0.364396 0
0.939728 -0.383729 0
0.94323 -0.418404 0
0.97147 -0.429579 0
0.996913 -0.448861 0
1.00681 -0.468717 0
1.02664 -0.46346 0
1.06448 -0.51837 0
1.09297 -0.545277 0
1.10052 -0.534861 0
1.12424 -0.558157 0
1.15898 -0.594034 0
1.18256 -0.600735 0
1.19878 -0.603518 0
1.22294 -0.638102 0
1.25431 -0.665882 0
1.27733 -0.668437 0
1.29445 -0.679346 0
1.32497 -0.708179 0
1.35922 -0.72564 0
1.37699 -0.724521 0
1.39227 -0.735491 0
1.42229 -0.761454 0
1.45492 -0.779272 0
1.47461 -0.786165 0
1.49024 -0.797359 0
1.51626 -0.81503 0
1.54835 -0.831727 0
1.57323 -0.84244 0
1.59227 -0.852597 0
1.61641 -0.867904 0
1.64593 -0.884249 0
1.67171 -0.895237 0
1.69258 -0.904822 0
1.71613 -0.920057 0
1.74441 -0.937182 0
1.77121 -0.948401 0
1.79345 -0.955659 0
1.8157 -0.966107 0
1.8417 -0.980799 0
1.86878 -0.99445 0
1.89346 -1.00391 0
1.91666 -1.01209 0
1.94103 -1.02189 0
1.96714 -1.03242 0
1.99323 -1.04187 0
2.01775 -1.04936 0
2.04171 -1.05519 0
2.06694 -1.06089 0
2.09312 -1.06791 0
2.11905 -1.07585 0
2.14451 -1.08274 0
2.16991 -1.0872 0
2.19505 -1.08996 0
2.2197 -1.09288 0
2.24431 -1.09737 0
2.26932 -1.10269 0
2.29469 -1.10757 0
2.31984 -1.11135 0
2.3445 -1.11451 0
2.36902 -1.11778 0
2.39369 -1.12102 0
2.41851 -1.12363 0
2.44333 -1.12516 0
2.46809 -1.12574 0
2.49283 -1.12578 0
</DataArray>
</Points>
<PointData>
<DataArray NumberOfComponents='1' type='Int32' Name='Particle Type' format='ascii'>
0
0
0
0
0
0
0
0
0
0
0
0
0
0
0
0
0
0
0
0
0
0
1
1
1
1
1
1
1
1
1
1
1
1
1
1
1
1
1
1
1
1
1
1
1
1
1
1
1
1
1
1
1
1
1
1
1
1
1
1
1
1
1
1
1
1
1
1
1
1
1
1
1
1
1
1
1
1
1
1
1
1
1
1
1
1
1
1
1
1
1
1
1
1
1
1
1
1
1
1
1
1
1
1
1
1
1
1
1
1
1
1
1
1
1
1
1
1
1
1
1
1
1
1
1
1
1
1
1
1
1
1
1
1
1
1
1
1
1
1
1
1
1
1
1
1
1
1
1
1
1
1
1
1
1
1
1
1
1
1
1
1
1
1
1
1
1
1
1
1
1
1
1
1
1
1
1
1
1
1
1
1
1
1
1
1
1
1
1
1
1
1
1
1
1
1
1
1
1
1
1
1
1
1
1
1
1
1
1
1
1
1
1
1
1
1
1
1
1
1
1
1
1
1
1
1
1
1
1
1
1
1
1
1
1
1
1
1
1
1
1
1
1
1
1
1
1
1
1
1
1
1
1
1
1
1
1
1
1
1
1
1
1
1
1
1
1
1
1
1
1
1
1
1
1
1
1
1
1
1
1
1
1
1
1
1
1
1
1
1
1
1
1
1
1
1
1
1
1
1
1
1
1
1
1
1
1
1
1
1
1
1
1
1
1
1
1
1
1
1
1
1
1
1
1
1
1
1
1
1
1
1
1
1
1
1
1
1
1
1
1
1
1
1
1
1
1
1
1
1
1
1
1
1
1
1
1
1
1
1
1
1
1
1
1
1
1
1
1
1
1
1
1
1
1
1
1
1
1
1
1
1
1
1
1
1
1
1
1
1
1
1
1
1
1
1
1
1
1
1
1
1
1
1
1
1
1
1
1
1
1
1
1
1
1
1
1
1
1
1
1
1
1
1
1
1
1
1
1
1
1
1
1
1
1
1
1
1
1
1
1
1
1
1
1
1
1
1
1
1
1
1
1
1
1
1
1
1
1
1
1
1
1
1
1
1
1
1
1
1
1
1
1
1
1
1
1
1
1
1
1
1
1
1
1
1
1
1
1
1
1
1
1
1
1
1
1
1
1
1
1
1
1
1
1
1
1
1
1
1
1
1
1
1
1
1
1
1
1
1
1
1
1
1
1
1
1
1
1
1
1
1
1
1
1
1
1
1
1
1
1
1
1
1
1
1
1
1
1
1
1
1
1
1
1
1
1
1
1
1
1
1
1
1
1
1
1
1
1
1
1
1
1
1
1
1
1
1
1
1
1
1
1
1
1
1
1
1
1
1
1
1
1
1
1
1
1
1
1
1
1
1
1
1
1
1
1
1
1
1
1
1
1
1
1
1
1
1
1
1
1
1
1
1
1
1
1
1
1
1
1
1
1
1
1
1
1
1
1
1
1
1
1
1
1
1
1
1
1
1
1
1
1
1
1
1
1
1
1
1
1
1
1
1
1
1
1
1
1
1
1
1
1
1
1
1
1
1
1
1
1
1
1
1
1
1
1
1
1
1
1
1
1
1
1
1
1
1
1
1
1
1
1
1
1
1
1
1
1
1
1
1
1
1
1
1
1
1
1
1
1
1
1
1
1
1
1
1
1
1
1
1
1
1
1
1
1
1
1
1
1
1
1
1
1
1
1
1
1
1
1
1
1
1
1
1
1
1
1
1
1
1
1
1
1
1
1
1
1
1
1
1
1
1
1
1
1
1
1
1
1
1
1
1
1
1
1
1
1
1
1
1
1
1
1
1
1
1
1
1
1
1
1
1
1
1
1
1
</DataArray>
<DataArray NumberOfComponents='3' type='Float64' Name='Velocity' format='ascii'>
-0.735699 -0.250069 0
-0.268581 0.0834951 0
-0.759375 -0.0896113 0
-0.532677 0.408378 0
-0.780329 -0.107387 0
-0.317554 0.0573296 0
-0.622295 0.350908 0
-0.772271 0.333739 0
0.107389 -0.408196 0
-0.0814676 -0.133954 0
0.160806 -0.446242 0
-0.245806 -0.396407 0
0.0337184 -0.468349 0
0.376891 -0.837306 0
-0.0871713 -0.763596 0
0.061625 -0.975356 0
-0.586895 -0.291343 0
-0.306689 -0.822601 0
-0.414861 -0.45647 0
0.730247 -0.392776 0
0.0245939 -0.7824 0
0.318469 0.189632 0
0.139148 0.199945 0
-0.0259848 0.0501766 0
0.104394 -1.5013 0
0.205362 0.927896 0
-0.164604 -0.0193781 0
-0.64612 -0.722092 0
-0.168869 -0.279842 0
0.0736017 -0.502653 0
0.664807 -1.13986 0
0.167302 0.473539 0
0.102259 0.225954 0
-0.572192 -0.725195 0
-0.260826 -0.65163 0
0.768131 -0.085502 0
-0.0958975 -0.587705 0
0.437572 0.00292513 0
-0.152414 -0.537323 0
0.0810544 -0.167171 0
-0.468263 -0.177295 0
-0.403272 -0.353804 0
0.113101 -0.230758 0
-0.434634 -0.668195 0
0.0623237 -0.330166 0
0.104453 0.3329 0
-0.885053 -1.54814 0
1.0055 0.283501 0
-0.0237133 -0.371673 0
0.348104 -0.528062 0
0.0846468 -0.658022 0
-0.310145 -0.0230454 0
-0.270594 0.19931 0
-0.489003 0.301643 0
-0.00449327 -0.811345 0
-0.216975 -0.619507 0
0.460127 -0.267684 0
0.261731 -0.156513 0
-0.391239 -0.604399 0
0.0846328 -0.732248 0
0.556713 -0.166766 0
-0.072872 0.0766607 0
-0.560879 -0.176077 0
-0.0237787 -0.307094 0
0.0707891 -0.403894 0
0.526009 -0.641361 0
-0.450259 -0.00700851 0
0.13702 -0.432049 0
0.375766 -0.63372 0
-0.11118 -0.289932 0
-0.213465 -0.157781 0
0.129832 -0.47499 0
0.177449 -0.605648 0
-0.0393915 -0.324538 0
-0.126556 -0.166308 0
-0.057722 -0.319254 0
0.0520372 -0.482318 0
0.0994218 -0.467497 0
-0.0102671 -0.359715 0
-0.143623 -0.318889 0
-0.0662304 -0.364163 0
0.105629 -0.424669 0
0.0911832 -0.435365 0
-0.0872727 -0.364586 0
-0.173525 -0.283777 0
-0.0594637 -0.31586 0
0.0957904 -0.430265 0
0.104743 -0.471067 0
-0.00973778 -0.397815 0
-0.0899627 -0.295462 0
-0.084369 -0.273263 0
-0.0419987 -0.335802 0
0.0142429 -0.409316 0
0.0525045 -0.41735 0
0.0243557 -0.369941 0
-0.0418969 -0.336668 0
-0.0728242 -0.330854 0
-0.0455504 -0.354079 0
-0.00650303 -0.376131 0
0.00226745 -0.387675 0
-0.0092908 -0.377552 0
-0.0176319 -0.361193 0
-0.0128864 -0.354265 0
-0.00306549 -0.360294 0
-0.0025833 -0.372384 0
-0.0124247 -0.376778 0
-0.0234979 -0.368773 0
-0.0294493 -0.356759 0
0.797379 0.476267 0
-0.226186 -0.944381 0
0.693668 -0.0929831 0
0.460922 0.015577 0
-0.395858 -0.270002 0
-0.245909 0.541048 0
0.00228428 0.200191 0
-0.180994 -0.0764117 0
0.734783 0.283593 0
-0.580073 -0.399239 0
-0.0745892 -0.324491 0
-0.271429 -0.321126 0
0.644043 -0.533172 0
-0.0461583 -0.0857696 0
-0.912124 0.301389 0
-0.478434 -0.684316 0
0.697206 -0.2377 0
-0.456215 -0.355319 0
-0.154597 -0.415759 0
0.104251 -0.566344 0
0.32281 -0.103401 0
-0.950881 -0.381343 0
-0.286195 0.125762 0
0.649467 0.282923 0
-0.497244 0.216 0
0.0473732 0.146932 0
0.35527 -0.583043 0
0.0725606 -0.00935316 0
-1.1473 0.504745 0
-0.381619 -0.342808 0
-0.0546999 0.0963503 0
-0.0274656 0.265549 0
0.0473073 0.80723 0
-0.270848 -0.158358 0
0.71303 -1.27827 0
-0.124972 -1.05604 0
0.838471 0.753326 0
0.387691 1.12302 0
-0.75643 -0.0509733 0
-0.647091 -0.319363 0
0.400557 0.280816 0
0.194133 -0.717052 0
0.674323 0.245441 0
-0.234235 0.150707 0
0.553623 -0.26304 0
0.116866 -0.892606 0
0.0966523 -0.142154 0
0.262178 -0.30868 0
-0.464263 0.0740248 0
0.252789 -0.225109 0
-0.0412607 -0.542507 0
-0.0678462 -0.481865 0
0.334212 -0.362158 0
0.145278 -0.17198 0
-0.345956 -0.257586 0
-0.15373 -0.508163 0
0.335226 -0.41391 0
0.0288725 -0.121522 0
-0.192176 -0.31054 0
0.208127 -0.615287 0
0.256962 -0.447918 0
-0.201082 -0.163087 0
-0.191355 -0.269759 0
0.170759 -0.485367 0
0.161806 -0.461912 0
-0.0683122 -0.304785 0
-0.101992 -0.2622 0
-0.0108286 -0.370733 0
0.0450519 -0.464663 0
0.038201 -0.40397 0
-0.0310005 -0.33464 0
-0.07862 -0.354412 0
-0.0295768 -0.390591 0
0.0494382 -0.405315 0
0.0380658 -0.395456 0
-0.0583676 -0.357373 0
-0.106467 -0.328619 0
-0.0395557 -0.359419 0
0.0465924 -0.412361 0
0.0489044 -0.425327 0
-0.00753264 -0.370377 0
-0.0498365 -0.305452 0
-0.0580295 -0.30224 0
-0.038417 -0.363597 0
0.00336828 -0.408984 0
0.0293653 -0.393779 0
0.00912026 -0.352892 0
-0.0351439 -0.328034 0
-0.0536275 -0.341458 0
-0.0350873 -0.366445 0
-0.0123042 -0.378755 0
-0.00678504 -0.380678 0
-0.0128573 -0.371424 0
-0.0158656 -0.364584 0
-0.0109234 -0.363485 0
-0.00501374 -0.366898 0
-0.0058311 -0.372411 0
-0.0129995 -0.373453 0
-0.0209509 -0.366988 0
-0.0254311 -0.358099 0
0.929084 -0.624298 0
0.199983 0.273923 0
0.335302 -0.213076 0
0.874836 -0.137565 0
-0.743971 0.617615 0
-0.429958 -0.342818 0
-0.363424 -0.248002 0
-0.509661 0.678061 0
0.403156 -0.493717 0
-0.175373 0.0836949 0
-0.482254 0.363931 0
0.114918 0.184248 0
-0.145909 -0.101906 0
-0.0488734 -0.103624 0
0.687378 0.642046 0
-0.409858 0.604563 0
0.47326 -0.681754 0
-0.0816315 0.297729 0
0.390523 -0.630592 0
-0.0514909 -0.571562 0
-0.592766 0.237533 0
-0.47526 -0.861277 0
-0.0422538 0.242907 0
0.198458 -0.360316 0
-0.114182 0.335934 0
0.557756 0.350187 0
0.47645 -0.529048 0
-0.185851 -0.620935 0
-0.317219 0.315225 0
-1.13908 0.199377 0
0.500858 -0.527816 0
0.356573 1.00576 0
-0.383461 -0.395276 0
0.275016 -0.726156 0
0.0150159 0.291171 0
0.414288 0.278899 0
0.394056 0.228988 0
0.209663 -0.293647 0
-0.553359 -0.660599 0
-0.308988 0.117063 0
-0.0410527 -0.0969542 0
0.58059 -1.30373 0
-0.900614 0.767299 0
-0.176407 0.177713 0
-0.357386 -0.558765 0
-0.110952 -1.30772 0
0.189319 -0.535001 0
-0.145949 0.14044 0
-0.43289 -0.0824692 0
-0.0430683 -0.27072 0
0.195436 -0.501404 0
0.0691381 -0.365523 0
-0.00648434 -0.285445 0
0.198335 -0.355366 0
0.0455444 -0.362617 0
-0.228592 -0.354682 0
-0.02257 -0.254593 0
0.129611 -0.282729 0
0.073745 -0.496618 0
0.104046 -0.490948 0
0.071407 -0.290786 0
-0.109141 -0.282359 0
-0.114712 -0.321496 0
0.0882165 -0.39586 0
0.136336 -0.394294 0
-0.0270977 -0.320846 0
-0.10427 -0.327166 0
0.00606303 -0.420009 0
0.0612896 -0.427299 0
-0.00534977 -0.376033 0
-0.0504071 -0.339584 0
-0.0378755 -0.343456 0
-0.0103699 -0.391917 0
0.0195914 -0.408965 0
0.0101101 -0.385012 0
-0.0446832 -0.360867 0
-0.0626622 -0.357931 0
-0.0209527 -0.365325 0
0.00899647 -0.394757 0
0.00482147 -0.398656 0
-0.00483146 -0.360786 0
-0.0186636 -0.320706 0
-0.0358488 -0.330151 0
-0.0336663 -0.376499 0
-0.00658437 -0.400707 0
0.00996397 -0.374422 0
-0.0064589 -0.337353 0
-0.0314811 -0.326947 0
-0.0370147 -0.353438 0
-0.0238621 -0.377267 0
-0.0138392 -0.377017 0
-0.0151018 -0.37128 0
-0.0176374 -0.368709 0
-0.0150714 -0.37188 0
-0.00960157 -0.3742 0
-0.00665658 -0.374079 0
-0.00856267 -0.374403 0
-0.0135471 -0.372948 0
-0.0185626 -0.367173 0
-0.0213732 -0.360137 0
0.130799 -0.224054 0
-0.746333 -0.231019 0
-0.27799 -0.392979 0
0.0893719 -0.0944307 0
-0.955847 0.753674 0
-0.14231 0.810908 0
0.616359 0.25955 0
-0.0165963 0.329514 0
0.393082 0.198509 0
-0.362267 -0.0791823 0
0.0206628 -0.0514138 0
-0.0183805 0.260385 0
0.130713 0.135844 0
0.140001 -0.0152528 0
0.0387049 0.128306 0
0.318162 0.51743 0
0.323563 -1.55286 0
-0.416618 -0.262456 0
-1.22804 0.24448 0
0.112848 0.487835 0
0.628096 0.26707 0
-0.0636222 -0.42965 0
-0.131833 -0.656751 0
0.25106 0.420619 0
-0.256304 -1.14887 0
0.216555 0.142622 0
0.580441 0.249057 0
-0.0823768 0.187798 0
0.119215 -0.271798 0
0.619795 -0.48046 0
-0.0298176 -1.11132 0
0.348113 -0.00269509 0
1.41178 -0.779912 0
-0.163256 0.353727 0
0.0845695 -0.140596 0
-0.178158 -0.964718 0
-0.211043 -0.103892 0
0.662433 -0.393469 0
0.0325257 -1.08201 0
-0.399643 -0.432659 0
0.0176213 0.519318 0
0.327137 -0.211071 0
0.125357 -1.01955 0
0.274095 0.362675 0
0.0528794 -0.133882 0
-0.325783 -0.583916 0
0.0946748 0.865565 0
-0.174294 -0.328961 0
0.334737 -1.13782 0
0.137856 -0.15843 0
-0.101055 -0.0129465 0
0.00108638 -0.490147 0
0.115078 -0.451833 0
0.131951 -0.142921 0
-0.0404408 -0.309253 0
-0.098265 -0.497712 0
0.0638007 -0.250757 0
0.0689179 -0.264085 0
-0.00902177 -0.57822 0
0.0903677 -0.412746 0
0.0895187 -0.152675 0
-0.0853409 -0.346049 0
-0.0644674 -0.498111 0
0.0832007 -0.29868 0
0.0667173 -0.270475 0
-0.0359457 -0.412039 0
-0.0569559 -0.38403 0
0.0101157 -0.363729 0
0.0532781 -0.435517 0
-0.00689311 -0.382329 0
-0.0703674 -0.311907 0
-0.0319925 -0.357358 0
0.0173423 -0.389717 0
0.00693473 -0.394242 0
-0.0174157 -0.395529 0
-0.0342958 -0.373211 0
-0.0315512 -0.360823 0
-0.0122861 -0.369104 0
-0.0141334 -0.369889 0
-0.0226556 -0.378757 0
-0.00536895 -0.375007 0
0.0033733 -0.343743 0
-0.0187118 -0.343632 0
-0.0307308 -0.382784 0
-0.0153852 -0.387402 0
-0.00585283 -0.350622 0
-0.0183274 -0.322749 0
-0.0273229 -0.341759 0
-0.021973 -0.36891 0
-0.0159045 -0.375916 0
-0.0172749 -0.366776 0
-0.0212628 -0.363405 0
-0.019626 -0.371634 0
-0.0137131 -0.381914 0
-0.00923486 -0.384297 0
-0.00873955 -0.380888 0
-0.0110498 -0.3779 0
-0.0140777 -0.374594 0
-0.0166894 -0.368552 0
-0.018137 -0.36213 0
0.11126 -0.136119 0
-0.29118 1.17264 0
0.64847 -0.0570099 0
0.381067 0.00244783 0
-0.438163 -0.846468 0
-0.0138746 0.157938 0
0.238489 0.106578 0
-0.868964 0.00302168 0
0.477473 0.425246 0
-0.264619 -0.754175 0
0.305452 -0.648053 0
0.338219 -0.348058 0
0.103131 -0.305815 0
-0.225981 0.310028 0
-0.525794 -0.902698 0
-0.825165 0.479469 0
-0.0126988 -0.118023 0
-0.0514836 -1.11602 0
0.205826 -1.32755 0
-0.654222 0.294912 0
0.474767 0.0123907 0
-0.262556 -0.507817 0
0.578023 -0.311176 0
0.511707 -1.18486 0
-0.179089 -0.161708 0
1.08304 0.0992418 0
0.323055 1.01051 0
-0.292324 -1.06704 0
0.0684644 0.578284 0
0.138392 -0.531526 0
-0.552838 0.292729 0
0.388679 0.0165892 0
-0.295981 -0.714761 0
-0.389295 -0.561047 0
0.918957 0.668035 0
-0.940422 -0.524139 0
-0.665393 -0.102091 0
0.303294 -0.363249 0
-0.383313 -0.537005 0
0.1011 -0.427122 0
0.0180097 -0.0758343 0
-0.0429949 -0.0861692 0
-0.584338 -0.777727 0
0.233851 -0.221273 0
0.0431266 -0.103673 0
-0.550054 -0.0407265 0
-0.411239 -0.131518 0
0.329353 -0.54641 0
0.113193 -0.564141 0
0.060409 -0.607818 0
0.196984 -0.283745 0
-0.00504024 -0.125031 0
-0.0704701 -0.245631 0
0.0139309 -0.275912 0
-0.0428522 -0.341777 0
0.0435386 -0.479137 0
0.219697 -0.398859 0
0.0161149 -0.30733 0
-0.209126 -0.340441 0
0.0284611 -0.30915 0
0.216106 -0.326136 0
-0.000555768 -0.39709 0
-0.109845 -0.379175 0
0.0659765 -0.329397 0
0.0800196 -0.335174 0
-0.0751511 -0.35537 0
-0.0627933 -0.387462 0
0.055651 -0.392625 0
0.0504889 -0.382078 0
-0.0305875 -0.381209 0
-0.0670998 -0.350055 0
-0.029655 -0.341043 0
0.0244396 -0.386975 0
0.0123397 -0.405807 0
-0.0365085 -0.377903 0
-0.0394109 -0.373058 0
-0.00717398 -0.380331 0
-0.0057179 -0.357772 0
-0.0312618 -0.35159 0
-0.0310168 -0.383319 0
-0.00207336 -0.382097 0
0.00900137 -0.359132 0
-0.00961488 -0.36439 0
-0.0251182 -0.378008 0
-0.0242169 -0.359325 0
-0.0208636 -0.328211 0
-0.0220573 -0.332155 0
-0.0198268 -0.360777 0
-0.0131419 -0.377888 0
-0.0136773 -0.367588 0
-0.0206681 -0.351627 0
-0.0235024 -0.359763 0
-0.0186625 -0.378382 0
-0.0123457 -0.391299 0
-0.00985122 -0.392186 0
-0.0109139 -0.38714 0
-0.0130425 -0.382547 0
-0.0146273 -0.377395 0
-0.0156815 -0.369936 0
-0.016354 -0.362926 0
0.404256 -0.0545075 0
-0.29419 0.0479789 0
-0.243598 -0.356749 0
0.709685 0.142851 0
0.539877 0.765912 0
0.351515 -0.448792 0
-0.349269 0.319454 0
-0.200818 -0.300555 0
0.780457 0.315937 0
-0.534289 -0.388161 0
-0.426212 -0.0071894 0
0.574958 -0.0864922 0
-0.15212 0.40698 0
0.0397657 -0.512964 0
0.680257 0.423318 0
0.679269 -0.970699 0
-0.665625 -0.764056 0
0.0497233 0.453759 0
0.0818336 -0.141149 0
0.970143 -0.623733 0
-0.303225 -0.0436651 0
0.116713 -0.979946 0
0.423186 0.615225 0
-0.434048 -1.11777 0
0.13011 0.58589 0
-1.10679 -0.953908 0