<?xml version='1.0' encoding='UTF-8'?>
<VTKFile byte_order='LittleEndian' version='0.1' type = 'UnstructuredGrid'>
<UnstructuredGrid>
<FieldData>
<DataArray type='Float64' Name='Time' NumberOfComponents='1' NumberOfTuples='1' format='ascii'>
1.161
</DataArray>
</FieldData>
<Piece NumberOfCells='808' NumberOfPoints='808'>
<Points>
<DataArray NumberOfComponents='3' type='Float64' Name='position' format='ascii'>
0 0 0
0 0.025 0
0 0.05 0
0 0.075 0
0 0.1 0
0 0.125 0
0 0.15 0
0 0.175 0
0.025 0 0
0.05 0 0
0.075 0 0
0.1 0 0
0.125 0 0
0.15 0 0
0.175 0 0
0.2 0 0
0.225 0 0
0.25 0 0
0.275 0 0
0.3 0 0
0.325 0 0
0.35 0 0
0.378164 -0.0186828 0
0.403219 -0.0288449 0
0.428307 -0.0372457 0
0.453283 -0.044632 0
0.478211 -0.0512909 0
0.503127 -0.0572007 0
0.527933 -0.0627081 0
0.55282 -0.0678653 0
0.577649 -0.0727924 0
0.602413 -0.0775287 0
0.627276 -0.082071 0
0.652105 -0.0865201 0
0.67689 -0.090804 0
0.701725 -0.0949513 0
0.726567 -0.0990748 0
0.75143 -0.103093 0
0.776398 -0.106918 0
0.801455 -0.1106 0
0.82653 -0.114132 0
0.851595 -0.117392 0
0.876657 -0.120307 0
0.901701 -0.122904 0
0.926703 -0.125211 0
0.951652 -0.127204 0
0.976559 -0.128868 0
1.00144 -0.130235 0
1.02631 -0.131366 0
1.05118 -0.132306 0
1.07604 -0.133068 0
1.10091 -0.13365 0
1.12577 -0.134056 0
1.15063 -0.13431 0
1.1755 -0.134446 0
1.20038 -0.134505 0
1.22527 -0.134518 0
1.25019 -0.134509 0
1.27513 -0.134493 0
1.30008 -0.134478 0
1.32505 -0.134465 0
1.35003 -0.134457 0
1.37502 -0.134451 0
1.40001 -0.134448 0
1.425 -0.134446 0
1.45 -0.134445 0
1.475 -0.134444 0
1.5 -0.134444 0
1.525 -0.134444 0
1.55 -0.134444 0
1.575 -0.134444 0
1.6 -0.134444 0
1.625 -0.134444 0
1.65 -0.134444 0
1.675 -0.134444 0
1.7 -0.134444 0
1.725 -0.134444 0
1.75 -0.134444 0
1.775 -0.134444 0
1.8 -0.134444 0
1.825 -0.134444 0
1.85 -0.134444 0
1.875 -0.134444 0
1.9 -0.134444 0
1.925 -0.134444 0
1.95 -0.134444 0
1.975 -0.134444 0
2 -0.134444 0
2.025 -0.134444 0
2.05 -0.134444 0
2.075 -0.134444 0
2.1 -0.134444 0
2.125 -0.134444 0
2.15 -0.134444 0
2.175 -0.134444 0
2.2 -0.134444 0
2.225 -0.134444 0
2.25 -0.134444 0
2.275 -0.134444 0
2.3 -0.134444 0
2.325 -0.134444 0
2.35 -0.134444 0
2.375 -0.134444 0
2.4 -0.134444 0
2.425 -0.134444 0
2.45 -0.134444 0
2.475 -0.134444 0
2.5 -0.134444 0
0.0248549 0.0245607 0
0.0498003 0.0242845 0
0.0747689 0.0240544 0
0.0997513 0.0237926 0
0.124706 0.0235763 0
0.149702 0.0232553 0
0.174676 0.0229964 0
0.199613 0.0225532 0
0.22468 0.0220095 0
0.249757 0.0214885 0
0.274835 0.0206483 0
0.300087 0.0194143 0
0.325665 0.0172348 0
0.352383 0.0123886 0
0.378469 0.00317721 0
0.403333 -0.0052294 0
0.428351 -0.0129512 0
0.453298 -0.020019 0
0.478206 -0.0264654 0
0.503093 -0.032346 0
0.527939 -0.0378568 0
0.552814 -0.0430127 0
0.577661 -0.0479038 0
0.602467 -0.0526031 0
0.627292 -0.0571397 0
0.6521 -0.0615678 0
0.676901 -0.0658636 0
0.701737 -0.0700318 0
0.72659 -0.0741298 0
0.751471 -0.0781297 0
0.776428 -0.0819791 0
0.801459 -0.0856774 0
0.82652 -0.08919 0
0.851585 -0.0924237 0
0.876647 -0.0953234 0
0.901689 -0.0979046 0
0.926691 -0.100187 0
0.951642 -0.10216 0
0.976552 -0.103815 0
1.00144 -0.105182 0
1.02631 -0.106314 0
1.05118 -0.107251 0
1.07604 -0.108007 0
1.10091 -0.108584 0
1.12577 -0.10899 0
1.15064 -0.109248 0
1.1755 -0.109392 0
1.20038 -0.10946 0
1.22528 -0.109483 0
1.2502 -0.109483 0
1.27513 -0.109476 0
1.30008 -0.109466 0
1.32505 -0.109458 0
1.35003 -0.109453 0
1.37502 -0.109449 0
1.40001 -0.109447 0
1.425 -0.109445 0
1.45 -0.109445 0
1.475 -0.109444 0
1.5 -0.109444 0
1.525 -0.109444 0
1.55 -0.109444 0
1.575 -0.109444 0
1.6 -0.109444 0
1.625 -0.109444 0
1.65 -0.109444 0
1.675 -0.109444 0
1.7 -0.109444 0
1.725 -0.109444 0
1.75 -0.109444 0
1.775 -0.109444 0
1.8 -0.109444 0
1.825 -0.109444 0
1.85 -0.109444 0
1.875 -0.109444 0
1.9 -0.109444 0
1.925 -0.109444 0
1.95 -0.109444 0
1.975 -0.109444 0
2 -0.109444 0
2.025 -0.109444 0
2.05 -0.109444 0
2.075 -0.109444 0
2.1 -0.109444 0
2.125 -0.109444 0
2.15 -0.109444 0
2.175 -0.109444 0
2.2 -0.109444 0
2.225 -0.109444 0
2.25 -0.109444 0
2.275 -0.109444 0
2.3 -0.109444 0
2.325 -0.109444 0
2.35 -0.109444 0
2.375 -0.109444 0
2.4 -0.109444 0
2.425 -0.109444 0
2.45 -0.109444 0
2.475 -0.109444 0
2.5 -0.109444 0
0.0247872 0.0492283 0
0.0496781 0.048693 0
0.0746137 0.0482399 0
0.0995826 0.0477607 0
0.124524 0.0474011 0
0.149515 0.0468186 0
0.174537 0.0463426 0
0.19953 0.0456696 0
0.224632 0.0447974 0
0.249784 0.0438763 0
0.275015 0.0424189 0
0.300498 0.0404248 0
0.326299 0.0374545 0
0.352489 0.0324621 0
0.378317 0.0253152 0
0.403445 0.0181306 0
0.428447 0.0111894 0
0.453362 0.00451847 0
0.478259 -0.00172736 0
0.50313 -0.00747641 0
0.527963 -0.0129146 0
0.552803 -0.0180719 0
0.577638 -0.022959 0
0.602468 -0.0276483 0
0.627302 -0.0321841 0
0.652121 -0.0366033 0
0.676936 -0.0409065 0
0.701771 -0.0450819 0
0.726619 -0.0491552 0
0.7515 -0.0531364 0
0.776449 -0.0570011 0
0.801463 -0.0607146 0
0.826513 -0.0642179 0
0.851576 -0.0674335 0
0.876639 -0.0703206 0
0.901683 -0.07289 0
0.926685 -0.0751575 0
0.951638 -0.0771181 0
0.976548 -0.0787698 0
1.00143 -0.0801396 0
1.02631 -0.0812729 0
1.05118 -0.0822062 0
1.07605 -0.0829557 0
1.10091 -0.0835266 0
1.12578 -0.0839301 0
1.15064 -0.0841903 0
1.17551 -0.0843413 0
1.20039 -0.0844183 0
1.22529 -0.084451 0
1.2502 -0.0844606 0
1.27513 -0.0844599 0
1.30009 -0.0844561 0
1.32505 -0.084452 0
1.35003 -0.0844489 0
1.37502 -0.0844468 0
1.40001 -0.0844455 0
1.425 -0.0844448 0
1.45 -0.0844444 0
1.475 -0.0844442 0
1.5 -0.0844441 0
1.525 -0.084444 0
1.55 -0.084444 0
1.575 -0.084444 0
1.6 -0.084444 0
1.625 -0.084444 0
1.65 -0.084444 0
1.675 -0.084444 0
1.7 -0.084444 0
1.725 -0.084444 0
1.75 -0.084444 0
1.775 -0.084444 0
1.8 -0.084444 0
1.825 -0.084444 0
1.85 -0.084444 0
1.875 -0.084444 0
1.9 -0.084444 0
1.925 -0.084444 0
1.95 -0.084444 0
1.975 -0.084444 0
2 -0.084444 0
2.025 -0.084444 0
2.05 -0.084444 0
2.075 -0.084444 0
2.1 -0.084444 0
2.125 -0.084444 0
2.15 -0.084444 0
2.175 -0.084444 0
2.2 -0.084444 0
2.225 -0.084444 0
2.25 -0.084444 0
2.275 -0.084444 0
2.3 -0.084444 0
2.325 -0.084444 0
2.35 -0.084444 0
2.375 -0.084444 0
2.4 -0.084444 0
2.425 -0.084444 0
2.45 -0.084444 0
2.475 -0.084444 0
2.5 -0.084444 0
0.0247937 0.0740656 0
0.0496628 0.0733632 0
0.0745579 0.072826 0
0.0995079 0.0721467 0
0.124473 0.0716031 0
0.14946 0.0708283 0
0.174487 0.0701285 0
0.199537 0.069263 0
0.224674 0.068119 0
0.24989 0.0668114 0
0.275233 0.064858 0
0.30078 0.0622887 0
0.326523 0.0588801 0
0.352408 0.0540413 0
0.378068 0.0479996 0
0.403356 0.0416606 0
0.428416 0.0352001 0
0.453347 0.0288842 0
0.478259 0.0229911 0
0.503138 0.0174175 0
0.527981 0.0120528 0
0.552799 0.00691539 0
0.577605 0.00201606 0
0.602437 -0.00270082 0
0.627296 -0.00724851 0
0.652152 -0.0116523 0
0.676993 -0.0159427 0
0.701821 -0.0201118 0
0.726649 -0.0241709 0
0.751515 -0.0281463 0
0.776455 -0.032023 0
0.801462 -0.0357455 0
0.826507 -0.0392416 0
0.851569 -0.0424439 0
0.876634 -0.0453209 0
0.90168 -0.0478801 0
0.926684 -0.0501355 0
0.951637 -0.0520867 0
0.976547 -0.0537364 0
1.00143 -0.0551089 0
1.0263 -0.0562434 0
1.05118 -0.0571727 0
1.07605 -0.0579138 0
1.10092 -0.0584762 0
1.12578 -0.0588749 0
1.15065 -0.0591358 0
1.17552 -0.0592922 0
1.20039 -0.0593776 0
1.22529 -0.0594197 0
1.2502 -0.059438 0
1.27514 -0.0594446 0
1.30009 -0.0594462 0
1.32505 -0.059446 0
1.35003 -0.0594454 0
1.37502 -0.0594449 0
1.40001 -0.0594445 0
1.42501 -0.0594443 0
1.45 -0.0594441 0
1.475 -0.0594441 0
1.5 -0.059444 0
1.525 -0.059444 0
1.55 -0.059444 0
1.575 -0.059444 0
1.6 -0.059444 0
1.625 -0.059444 0
1.65 -0.059444 0
1.675 -0.059444 0
1.7 -0.059444 0
1.725 -0.059444 0
1.75 -0.059444 0
1.775 -0.059444 0
1.8 -0.059444 0
1.825 -0.059444 0
1.85 -0.059444 0
1.875 -0.059444 0
1.9 -0.059444 0
1.925 -0.059444 0
1.95 -0.059444 0
1.975 -0.059444 0
2 -0.059444 0
2.025 -0.059444 0
2.05 -0.059444 0
2.075 -0.059444 0
2.1 -0.059444 0
2.125 -0.059444 0
2.15 -0.059444 0
2.175 -0.059444 0
2.2 -0.059444 0
2.225 -0.059444 0
2.25 -0.059444 0
2.275 -0.059444 0
2.3 -0.059444 0
2.325 -0.059444 0
2.35 -0.059444 0
2.375 -0.059444 0
2.4 -0.059444 0
2.425 -0.059444 0
2.45 -0.059444 0
2.475 -0.059444 0
2.5 -0.059444 0
0.0248124 0.0989507 0
0.0496701 0.0981759 0
0.0745538 0.0975482 0
0.0994885 0.0968353 0
0.124489 0.0962519 0
0.149504 0.0953728 0
0.174511 0.0944752 0
0.199573 0.0933807 0
0.224726 0.0919709 0
0.250028 0.0902814 0
0.275433 0.0879342 0
0.300966 0.0850284 0
0.326593 0.0813587 0
0.352275 0.0767431 0
0.377836 0.0712543 0
0.403162 0.0654598 0
0.428271 0.0593715 0
0.453226 0.0534758 0
0.478152 0.04776 0
0.503057 0.042261 0
0.527952 0.0369701 0
0.552791 0.0318753 0
0.577592 0.026984 0
0.602422 0.0222403 0
0.627292 0.0176769 0
0.652177 0.0132913 0
0.677046 0.00902869 0
0.701871 0.00487506 0
0.726673 0.000815515 0
0.751516 -0.00317247 0
0.776445 -0.00706268 0
0.801451 -0.0107873 0
0.8265 -0.0142739 0
0.851567 -0.0174646 0
0.876635 -0.0203326 0
0.901682 -0.0228827 0
0.926688 -0.0251268 0
0.95164 -0.0270684 0
0.976547 -0.0287145 0
1.00143 -0.0300883 0
1.0263 -0.0312236 0
1.05117 -0.0321489 0
1.07605 -0.0328813 0
1.10092 -0.0334338 0
1.12579 -0.0338256 0
1.15065 -0.034085 0
1.17552 -0.0342451 0
1.2004 -0.0343379 0
1.22529 -0.0343889 0
1.25021 -0.0344156 0
1.27514 -0.0344294 0
1.30009 -0.0344364 0
1.32505 -0.03444 0
1.35003 -0.0344419 0
1.37502 -0.0344429 0
1.40001 -0.0344434 0
1.42501 -0.0344437 0
1.45 -0.0344439 0
1.475 -0.0344439 0
1.5 -0.034444 0
1.525 -0.034444 0
1.55 -0.034444 0
1.575 -0.034444 0
1.6 -0.034444 0
1.625 -0.034444 0
1.65 -0.034444 0
1.675 -0.034444 0
1.7 -0.034444 0
1.725 -0.034444 0
1.75 -0.034444 0
1.775 -0.034444 0
1.8 -0.034444 0
1.825 -0.034444 0
1.85 -0.034444 0
1.875 -0.034444 0
1.9 -0.034444 0
1.925 -0.034444 0
1.95 -0.034444 0
1.975 -0.034444 0
2 -0.034444 0
2.025 -0.034444 0
2.05 -0.034444 0
2.075 -0.034444 0
2.1 -0.034444 0
2.125 -0.034444 0
2.15 -0.034444 0
2.175 -0.034444 0
2.2 -0.034444 0
2.225 -0.034444 0
2.25 -0.034444 0
2.275 -0.034444 0
2.3 -0.034444 0
2.325 -0.034444 0
2.35 -0.034444 0
2.375 -0.034444 0
2.4 -0.034444 0
2.425 -0.034444 0
2.45 -0.034444 0
2.475 -0.034444 0
2.5 -0.034444 0
0.0247904 0.123888 0
0.0496428 0.12308 0
0.0745291 0.122347 0
0.0994657 0.121647 0
0.124494 0.12092 0
0.149495 0.119991 0
0.174564 0.118981 0
0.199709 0.117655 0
0.224833 0.116009 0
0.250159 0.114055 0
0.275613 0.11148 0
0.301096 0.108379 0
0.326661 0.104588 0
0.352196 0.100047 0
0.377652 0.0949612 0
0.402989 0.0894577 0
0.428132 0.0837544 0
0.453109 0.0780953 0
0.478022 0.0725134 0
0.502974 0.067114 0
0.527925 0.0618398 0
0.552766 0.0567894 0
0.577564 0.0519418 0
0.602407 0.047201 0
0.627294 0.0426278 0
0.652201 0.0382492 0
0.677085 0.0340132 0
0.701906 0.0298772 0
0.726687 0.0258058 0
0.751508 0.0217911 0
0.776423 0.0178834 0
0.801431 0.0141575 0
0.826492 0.0106799 0
0.85157 0.00750022 0
0.876642 0.00464133 0
0.90169 0.00210035 0
0.926695 -0.000132296 0
0.951647 -0.00206254 0
0.976551 -0.00370185 0
1.00143 -0.00507464 0
1.02629 -0.00621062 0
1.05117 -0.00713313 0
1.07604 -0.00785766 0
1.10092 -0.00839991 0
1.12579 -0.00878322 0
1.15066 -0.00903889 0
1.17553 -0.00920088 0
1.2004 -0.00929962 0
1.22529 -0.00935849 0
1.25021 -0.00939337 0
1.27514 -0.00941412 0
1.30009 -0.00942655 0
1.32505 -0.00943399 0
1.35003 -0.0094384 0
1.37502 -0.00944095 0
1.40001 -0.0094424 0
1.425 -0.00944318 0
1.45 -0.0094436 0
1.475 -0.00944381 0
1.5 -0.00944391 0
1.525 -0.00944396 0
1.55 -0.00944398 0
1.575 -0.00944399 0
1.6 -0.009444 0
1.625 -0.009444 0
1.65 -0.009444 0
1.675 -0.009444 0
1.7 -0.009444 0
1.725 -0.009444 0
1.75 -0.009444 0
1.775 -0.009444 0
1.8 -0.009444 0
1.825 -0.009444 0
1.85 -0.009444 0
1.875 -0.009444 0
1.9 -0.009444 0
1.925 -0.009444 0
1.95 -0.009444 0
1.975 -0.009444 0
2 -0.009444 0
2.025 -0.009444 0
2.05 -0.009444 0
2.075 -0.009444 0
2.1 -0.009444 0
2.125 -0.009444 0
2.15 -0.009444 0
2.175 -0.009444 0
2.2 -0.009444 0
2.225 -0.009444 0
2.25 -0.009444 0
2.275 -0.009444 0
2.3 -0.009444 0
2.325 -0.009444 0
2.35 -0.009444 0
2.375 -0.009444 0
2.4 -0.009444 0
2.425 -0.009444 0
2.45 -0.009444 0
2.475 -0.009444 0
2.5 -0.009444 0
0.0247891 0.148794 0
0.0496758 0.147876 0
0.0745775 0.147003 0
0.0995296 0.146128 0
0.124503 0.145182 0
0.149445 0.144255 0
0.174623 0.143105 0
0.199834 0.141668 0
0.224978 0.139919 0
0.250274 0.137797 0
0.27565 0.135216 0
0.301114 0.132039 0
0.326683 0.128202 0
0.352112 0.123782 0
0.377458 0.11893 0
0.402821 0.113618 0
0.428019 0.10817 0
0.452984 0.102711 0
0.477906 0.0972921 0
0.502953 0.0919148 0
0.527945 0.0866691 0
0.552751 0.0816995 0
0.577508 0.0768956 0
0.60235 0.0721651 0
0.627279 0.0675817 0
0.65223 0.063201 0
0.677123 0.0589925 0
0.701928 0.0548768 0
0.726691 0.0507888 0
0.751491 0.0467418 0
0.776391 0.0428112 0
0.801403 0.0390773 0
0.826481 0.0356044 0
0.851575 0.0324369 0
0.876654 0.0295908 0
0.901702 0.0270616 0
0.926707 0.0248428 0
0.951657 0.0229283 0
0.976556 0.0213011 0
1.00143 0.019933 0
1.02629 0.018797 0
1.05116 0.0178757 0
1.07604 0.0171573 0
1.10092 0.0166251 0
1.1258 0.0162515 0
1.15066 0.0160016 0
1.17553 0.0158399 0
1.2004 0.015737 0
1.22529 0.0156712 0
1.2502 0.0156289 0
1.27513 0.0156013 0
1.30009 0.0155836 0
1.32505 0.0155722 0
1.35003 0.0155653 0
1.37502 0.0155611 0
1.40001 0.0155587 0
1.425 0.0155574 0
1.45 0.0155567 0
1.475 0.0155563 0
1.5 0.0155562 0
1.525 0.0155561 0
1.55 0.015556 0
1.575 0.015556 0
1.6 0.015556 0
1.625 0.015556 0
1.65 0.015556 0
1.675 0.015556 0
1.7 0.015556 0
1.725 0.015556 0
1.75 0.015556 0
1.775 0.015556 0
1.8 0.015556 0
1.825 0.015556 0
1.85 0.015556 0
1.875 0.015556 0
1.9 0.015556 0
1.925 0.015556 0
1.95 0.015556 0
1.975 0.015556 0
2 0.015556 0
2.025 0.015556 0
2.05 0.015556 0
2.075 0.015556 0
2.1 0.015556 0
2.125 0.015556 0
2.15 0.015556 0
2.175 0.015556 0
2.2 0.015556 0
2.225 0.015556 0
2.25 0.015556 0
2.275 0.015556 0
2.3 0.015556 0
2.325 0.015556 0
2.35 0.015556 0
2.375 0.015556 0
2.4 0.015556 0
2.425 0.015556 0
2.45 0.015556 0
2.475 0.015556 0
2.5 0.015556 0
0.0247994 0.173744 0
0.0497072 0.172794 0
0.0745866 0.171891 0
0.0995278 0.170975 0
0.124521 0.169958 0
0.149543 0.168962 0
0.174729 0.167588 0
0.199708 0.166207 0
0.225002 0.164451 0
0.250464 0.162147 0
0.275621 0.159582 0
0.301086 0.156323 0
0.326769 0.152401 0
0.352075 0.148143 0
0.377312 0.143345 0
0.402773 0.138053 0
0.428037 0.132722 0
0.452925 0.127432 0
0.477827 0.12199 0
0.50291 0.116547 0
0.527951 0.111444 0
0.552772 0.106611 0
0.577457 0.101833 0
0.602254 0.0970857 0
0.627249 0.0924692 0
0.652272 0.0880912 0
0.677167 0.0839344 0
0.701945 0.0798511 0
0.726685 0.0757481 0
0.751462 0.0716685 0
0.776349 0.0677072 0
0.80137 0.063952 0
0.826472 0.0604776 0
0.851583 0.0573271 0
0.876667 0.0545022 0
0.901717 0.051992 0
0.926723 0.0497947 0
0.951672 0.0479051 0
0.976565 0.046299 0
1.00143 0.0449411 0
1.02628 0.0438062 0
1.05116 0.0428844 0
1.07604 0.0421703 0
1.10092 0.0416472 0
1.1258 0.0412841 0
1.15067 0.0410415 0
1.17553 0.0408818 0
1.2004 0.0407757 0
1.22529 0.0407036 0
1.2502 0.0406536 0
1.27513 0.0406189 0
1.30008 0.0405952 0
1.32505 0.0405796 0
1.35003 0.0405696 0
1.37502 0.0405636 0
1.40001 0.04056 0
1.425 0.0405581 0
1.45 0.040557 0
1.475 0.0405565 0
1.5 0.0405562 0
1.525 0.0405561 0
1.55 0.040556 0
1.575 0.040556 0
1.6 0.040556 0
1.625 0.040556 0
1.65 0.040556 0
1.675 0.040556 0
1.7 0.040556 0
1.725 0.040556 0
1.75 0.040556 0
1.775 0.040556 0
1.8 0.040556 0
1.825 0.040556 0
1.85 0.040556 0
1.875 0.040556 0
1.9 0.040556 0
1.925 0.040556 0
1.95 0.040556 0
1.975 0.040556 0
2 0.040556 0
2.025 0.040556 0
2.05 0.040556 0
2.075 0.040556 0
2.1 0.040556 0
2.125 0.040556 0
2.15 0.040556 0
2.175 0.040556 0
2.2 0.040556 0
2.225 0.040556 0
2.25 0.040556 0
2.275 0.040556 0
2.3 0.040556 0
2.325 0.040556 0
2.35 0.040556 0
2.375 0.040556 0
2.4 0.040556 0
2.425 0.040556 0
2.45 0.040556 0
2.475 0.040556 0
2.5 0.040556 0
</DataArray>
</Points>
<PointData>
<DataArray NumberOfComponents='1' type='Int32' Name='Particle Type' format='ascii'>
0
0
0
0
0
0
0
0
0
0
0
0
0
0
0
0
0
0
0
0
0
0
1
1
1
1
1
1
1
1
1
1
1
1
1
1
1
1
1
1
1
1
1
1
1
1
1
1
1
1
1
1
1
1
1
1
1
1
1
1
1
1
1
1
1
1
1
1
1
1
1
1
1
1
1
1
1
1
1
1
1
1
1
1
1
1
1
1
1
1
1
1
1
1
1
1
1
1
1
1
1
1
1
1
1
1
1
1
1
1
1
1
1
1
1
1
1
1
1
1
1
1
1
1
1
1
1
1
1
1
1
1
1
1
1
1
1
1
1
1
1
1
1
1
1
1
1
1
1
1
1
1
1
1
1
1
1
1
1
1
1
1
1
1
1
1
1
1
1
1
1
1
1
1
1
1
1
1
1
1
1
1
1
1
1
1
1
1
1
1
1
1
1
1
1
1
1
1
1
1
1
1
1
1
1
1
1
1
1
1
1
1
1
1
1
1
1
1
1
1
1
1
1
1
1
1
1
1
1
1
1
1
1
1
1
1
1
1
1
1
1
1
1
1
1
1
1
1
1
1
1
1
1
1
1
1
1
1
1
1
1
1
1
1
1
1
1
1
1
1
1
1
1
1
1
1
1
1
1
1
1
1
1
1
1
1
1
1
1
1
1
1
1
1
1
1
1
1
1
1
1
1
1
1
1
1
1
1
1
1
1
1
1
1
1
1
1
1
1
1
1
1
1
1
1
1
1
1
1
1
1
1
1
1
1
1
1
1
1
1
1
1
1
1
1
1
1
1
1
1
1
1
1
1
1
1
1
1
1
1
1
1
1
1
1
1
1
1
1
1
1
1
1
1
1
1
1
1
1
1
1
1
1
1
1
1
1
1
1
1
1
1
1
1
1
1
1
1
1
1
1
1
1
1
1
1
1
1
1
1
1
1
1
1
1
1
1
1
1
1
1
1
1
1
1
1
1
1
1
1
1
1
1
1
1
1
1
1
1
1
1
1
1
1
1
1
1
1
1
1
1
1
1
1
1
1
1
1
1
1
1
1
1
1
1
1
1
1
1
1
1
1
1
1
1
1
1
1
1
1
1
1
1
1
1
1
1
1
1
1
1
1
1
1
1
1
1
1
1
1
1
1
1
1
1
1
1
1
1
1
1
1
1
1
1
1
1
1
1
1
1
1
1
1
1
1
1
1
1
1
1
1
1
1
1
1
1
1
1
1
1
1
1
1
1
1
1
1
1
1
1
1
1
1
1
1
1
1
1
1
1
1
1
1
1
1
1
1
1
1
1
1
1
1
1
1
1
1
1
1
1
1
1
1
1
1
1
1
1
1
1
1
1
1
1
1
1
1
1
1
1
1
1
1
1
1
1
1
1
1
1
1
1
1
1
1
1
1
1
1
1
1
1
1
1
1
1
1
1
1
1
1
1
1
1
1
1
1
1
1
1
1
1
1
1
1
1
1
1
1
1
1
1
1
1
1
1
1
1
1
1
1
1
1
1
1
1
1
1
1
1
1
1
1
1
1
1
1
1
1
1
1
1
1
1
1
1
1
1
1
1
1
1
1
1
1
1
1
1
1
1
1
1
1
1
1
1
1
1
1
1
1
1
1
1
1
1
1
1
1
1
1
1
1
1
1
1
1
1
1
1
1
1
1
1
1
1
1
1
1
1
1
1
1
1
1
1
1
1
1
1
1
1
1
1
1
1
1
1
1
1
1
1
1
1
1
1
1
1
1
1
1
1
1
1
1
1
1
1
1
1
1
1
1
1
1
1
1
1
1
1
1
1
1
1
1
1
1
1
1
1
1
1
1
1
1
1
1
</DataArray>
<DataArray NumberOfComponents='3' type='Float64' Name='Velocity' format='ascii'>
0 0 0
0 0 0
0 0 0
0 0 0
0 0 0
0 0 0
0 0 0
0 0 0
0 0 0
0 0 0
0 0 0
0 0 0
0 0 0
0 0 0
0 0 0
0 0 0
0 0 0
0 0 0
0 0 0
0 0 0
0 0 0
0 0 0
0.00244291 -0.0153656 0
0.00367284 -0.0247521 0
0.00189662 -0.0302374 0
0.00309187 -0.0368532 0
0.00220183 -0.0513721 0
0.00491524 -0.0638244 0
0.00537367 -0.0719946 0
0.0041559 -0.0790803 0
0.00749787 -0.083182 0
0.00602864 -0.0884906 0
0.00446492 -0.0922471 0
0.00643857 -0.0956787 0
0.00605431 -0.100678 0
0.00488865 -0.102384 0
0.00448122 -0.103649 0
0.00195958 -0.108723 0
-0.00175049 -0.114248 0
-0.00351821 -0.118528 0
-0.0034376 -0.125133 0
-0.00308437 -0.135213 0
-0.00257368 -0.145871 0
-0.00132862 -0.155443 0
0.000509861 -0.164982 0
0.00229594 -0.175233 0
0.00359898 -0.185143 0
0.00436527 -0.193377 0
0.00472382 -0.199837 0
0.00483918 -0.205428 0
0.00485967 -0.210968 0
0.0048726 -0.216565 0
0.00487053 -0.221769 0
0.00477449 -0.226053 0
0.00450175 -0.229145 0
0.00402495 -0.231084 0
0.00338717 -0.232112 0
0.00267693 -0.23253 0
0.00198859 -0.232602 0
0.00139206 -0.232514 0
0.000921231 -0.232381 0
0.000578305 -0.232256 0
0.000345507 -0.23216 0
0.000197064 -0.232094 0
0.000107603 -0.232052 0
5.63923e-05 -0.232028 0
2.84303e-05 -0.232014 0
1.38167e-05 -0.232007 0
6.48482e-06 -0.232003 0
2.94436e-06 -0.232001 0
1.29523e-06 -0.232001 0
5.5281e-07 -0.232 0
2.29208e-07 -0.232 0
9.24313e-08 -0.232 0
3.62922e-08 -0.232 0
1.38883e-08 -0.232 0
5.18471e-09 -0.232 0
1.88983e-09 -0.232 0
6.73108e-10 -0.232 0
2.34498e-10 -0.232 0
7.98971e-11 -0.232 0
2.6684e-11 -0.232 0
8.7494e-12 -0.232 0
2.81177e-12 -0.232 0
8.80177e-13 -0.232 0
2.5708e-13 -0.232 0
4.60255e-14 -0.232 0
5.0419e-15 -0.232 0
4.03815e-16 -0.232 0
1.85221e-16 -0.232 0
1.52664e-16 -0.232 0
5.09992e-17 -0.232 0
-6.0273e-17 -0.232 0
-1.70343e-16 -0.232 0
-1.53025e-16 -0.232 0
2.29438e-16 -0.232 0
4.88205e-16 -0.232 0
7.62062e-17 -0.232 0
-3.06333e-16 -0.232 0
-2.22675e-17 -0.232 0
2.85089e-16 -0.232 0
6.80599e-16 -0.232 0
-6.8775e-17 -0.232 0
-1.00559e-15 -0.232 0
-2.81772e-16 -0.232 0
-1.70603e-16 -0.232 0
-5.49246e-16 -0.232 0
1.49904e-16 -0.232 0
-0.0010319 -0.00119286 0
-0.000605396 -0.00328829 0
0.000233502 -0.00339117 0
0.0015572 -0.00479267 0
0.00183419 -0.00271735 0
0.000587593 -0.00182854 0
0.00237657 -0.00221375 0
0.000483984 0.00175855 0
-0.00197844 -0.00494288 0
-5.13249e-05 -0.00746837 0
-0.000454847 -0.00546271 0
-0.000801391 -0.00854254 0
0.00294455 -0.00652619 0
0.00383832 -0.00737415 0
0.00309664 -0.0181405 0
0.00394193 -0.0258677 0
0.00280763 -0.0307045 0
0.00305632 -0.0385291 0
0.00271718 -0.0506399 0
0.00355293 -0.060083 0
0.00345133 -0.069347 0
0.00326321 -0.0783612 0
0.0053338 -0.0843382 0
0.00593144 -0.0890648 0
0.00603379 -0.0927127 0
0.00667202 -0.0958174 0
0.00581483 -0.0998436 0
0.00459755 -0.102596 0
0.00380118 -0.104804 0
0.00184414 -0.108751 0
-0.000933763 -0.113525 0
-0.00266498 -0.118642 0
-0.00309179 -0.125998 0
-0.00301258 -0.135955 0
-0.00252225 -0.146425 0
-0.00130307 -0.156135 0
0.000466377 -0.165722 0
0.00220988 -0.175691 0
0.00350229 -0.185254 0
0.00426207 -0.193357 0
0.00462182 -0.199895 0
0.0047607 -0.2056 0
0.00481655 -0.211158 0
0.00485314 -0.216664 0
0.00485336 -0.221722 0
0.00474783 -0.225864 0
0.00446958 -0.228855 0
0.0039998 -0.230746 0
0.00337951 -0.231775 0
0.00268931 -0.232229 0
0.00201624 -0.232356 0
0.00142688 -0.23233 0
0.000955739 -0.232251 0
0.00060769 -0.232171 0
0.000367882 -0.232107 0
0.000212642 -0.232063 0
0.000117665 -0.232035 0
6.24817e-05 -0.232018 0
3.19095e-05 -0.232009 0
1.57042e-05 -0.232005 0
7.46156e-06 -0.232002 0
3.42831e-06 -0.232001 0
1.52555e-06 -0.232 0
6.5837e-07 -0.232 0
2.75909e-07 -0.232 0
1.12416e-07 -0.232 0
4.45789e-08 -0.232 0
1.7223e-08 -0.232 0
6.48885e-09 -0.232 0
2.38613e-09 -0.232 0
8.5718e-10 -0.232 0
3.01001e-10 -0.232 0
1.03409e-10 -0.232 0
3.47768e-11 -0.232 0
1.14698e-11 -0.232 0
3.69514e-12 -0.232 0
1.17631e-12 -0.232 0
3.65715e-13 -0.232 0
8.19867e-14 -0.232 0
9.22319e-15 -0.232 0
6.00099e-16 -0.232 0
2.14221e-16 -0.232 0
1.97493e-16 -0.232 0
2.26759e-17 -0.232 0
-2.49758e-16 -0.232 0
-2.9412e-16 -0.232 0
3.46321e-17 -0.232 0
2.95413e-16 -0.232 0
2.10633e-16 -0.232 0
-9.68997e-17 -0.232 0
-4.06345e-17 -0.232 0
8.09446e-17 -0.232 0
8.75028e-17 -0.232 0
4.36567e-17 -0.232 0
-5.1207e-16 -0.232 0
-3.7982e-17 -0.232 0
3.59432e-16 -0.232 0
-3.04228e-16 -0.232 0
1.46532e-19 -0.232 0
1.93426e-16 -0.232 0
8.54223e-05 -0.000134949 0
0.000378194 -0.00241627 0
9.23964e-05 -0.00198823 0
0.000599732 -0.00627337 0
0.00121858 -0.00481307 0
-0.000256109 -0.00402643 0
0.00159841 -0.00892468 0
0.00223917 -0.00314896 0
0.00130458 -0.00892382 0
0.00217013 -0.0104626 0
0.000476948 -0.00716101 0
-0.00125307 -0.0115755 0
0.00213072 -0.0106522 0
0.00242544 -0.0119054 0
0.00149398 -0.0229516 0
0.00262423 -0.0319695 0
0.00264198 -0.0345084 0
0.00287639 -0.0388888 0
0.00273915 -0.0502181 0
0.00398185 -0.0613022 0
0.00447774 -0.0686922 0
0.00437282 -0.0773091 0
0.00486452 -0.0840186 0
0.00507056 -0.0887791 0
0.00552839 -0.0925774 0
0.00600996 -0.0956683 0
0.00549395 -0.0994406 0
0.00469099 -0.103145 0
0.003831 -0.106056 0
0.00202851 -0.109117 0
-0.000330129 -0.11311 0
-0.00199342 -0.118639 0
-0.00272004 -0.126563 0
-0.00291696 -0.13652 0
-0.00254148 -0.146846 0
-0.00135176 -0.156584 0
0.000425485 -0.16614 0
0.00219649 -0.175873 0
0.00349961 -0.185186 0
0.00423216 -0.193245 0
0.00455049 -0.199931 0
0.0046708 -0.205804 0
0.00474056 -0.211417 0
0.00480596 -0.216839 0
0.00482999 -0.221735 0
0.00473691 -0.225712 0
0.00446465 -0.228583 0
0.00400086 -0.230418 0
0.0033888 -0.231448 0
0.00270726 -0.231943 0
0.0020404 -0.232128 0
0.00145317 -0.232162 0
0.00098032 -0.232136 0
0.000628111 -0.232096 0
0.000383275 -0.232062 0
0.000223329 -0.232036 0
0.000124573 -0.23202 0
6.66732e-05 -0.232011 0
3.43126e-05 -0.232005 0
1.70128e-05 -0.232003 0
8.14133e-06 -0.232001 0
3.76638e-06 -0.232001 0
1.68701e-06 -0.232 0
7.32619e-07 -0.232 0
3.08861e-07 -0.232 0
1.26558e-07 -0.232 0
5.04582e-08 -0.232 0
1.95946e-08 -0.232 0
7.41854e-09 -0.232 0
2.74066e-09 -0.232 0
9.88827e-10 -0.232 0
3.48701e-10 -0.232 0
1.20277e-10 -0.232 0
4.05734e-11 -0.232 0
1.34155e-11 -0.232 0
4.3575e-12 -0.232 0
1.40017e-12 -0.232 0
4.33169e-13 -0.232 0
1.09096e-13 -0.232 0
1.27632e-14 -0.232 0
8.35516e-16 -0.232 0
1.45905e-16 -0.232 0
4.15597e-17 -0.232 0
-1.19075e-16 -0.232 0
-2.07336e-16 -0.232 0
-1.75256e-17 -0.232 0
1.25016e-16 -0.232 0
-4.61161e-17 -0.232 0
-9.93836e-17 -0.232 0
1.61617e-16 -0.232 0
4.34954e-16 -0.232 0
-1.31728e-16 -0.232 0
-4.17002e-16 -0.232 0
-4.83619e-16 -0.232 0
-9.07892e-17 -0.232 0
1.02078e-15 -0.232 0
3.42395e-16 -0.232 0
-4.31943e-16 -0.232 0
6.11437e-17 -0.232 0
-1.81326e-16 -0.232 0
0.00112146 0.00262166 0
0.00161882 0.00221331 0
0.00142707 0.0060717 0
0.000762502 0.00637553 0
0.00173194 0.00464302 0
0.00195466 0.00524875 0
0.00188855 -0.00208606 0
0.00194998 0.00314108 0
0.00170911 0.000127536 0
0.00124957 0.000724455 0
0.00101428 0.00275134 0
-0.0005934 -0.00712075 0
0.000281459 -0.00758782 0
0.000655588 -0.0117602 0
0.000196203 -0.0192263 0
0.00156314 -0.0296232 0
0.00237945 -0.0325659 0
0.00242254 -0.0441589 0
0.0023625 -0.0565128 0
0.00378283 -0.063577 0
0.00499516 -0.0691227 0
0.00581413 -0.0761324 0
0.00550331 -0.0820232 0
0.00433819 -0.0870427 0
0.00395945 -0.0921421 0
0.00437522 -0.0960538 0
0.0048813 -0.099803 0
0.00521035 -0.103762 0
0.00459178 -0.106805 0
0.00255294 -0.109323 0
6.74941e-05 -0.112957 0
-0.00166581 -0.118788 0
-0.0025312 -0.127041 0
-0.00286699 -0.136969 0
-0.0025725 -0.147184 0
-0.00140449 -0.156921 0
0.00040748 -0.166428 0
0.0022396 -0.175961 0
0.00357317 -0.185075 0
0.00427397 -0.193117 0
0.00452146 -0.199968 0
0.00458303 -0.206039 0
0.00463736 -0.21174 0
0.00472559 -0.217098 0
0.00478729 -0.221828 0
0.00472719 -0.225618 0
0.00447581 -0.228344 0
0.00402217 -0.230105 0
0.00341359 -0.231127 0
0.00273203 -0.231658 0
0.00206327 -0.231902 0
0.00147299 -0.231996 0
0.000996445 -0.232023 0
0.000640407 -0.232024 0
0.000392067 -0.232018 0
0.000229236 -0.232011 0
0.000128314 -0.232006 0
6.89145e-05 -0.232003 0
3.55876e-05 -0.232002 0
1.7704e-05 -0.232001 0
8.49948e-06 -0.232 0
3.94428e-06 -0.232 0
1.77194e-06 -0.232 0
7.71684e-07 -0.232 0
3.26207e-07 -0.232 0
1.34007e-07 -0.232 0
5.35577e-08 -0.232 0
2.08462e-08 -0.232 0
7.90954e-09 -0.232 0
2.92813e-09 -0.232 0
1.0586e-09 -0.232 0
3.73924e-10 -0.232 0
1.29222e-10 -0.232 0
4.36689e-11 -0.232 0
1.44868e-11 -0.232 0
4.70729e-12 -0.232 0
1.49523e-12 -0.232 0
4.77185e-13 -0.232 0
1.23181e-13 -0.232 0
1.47875e-14 -0.232 0
8.96644e-16 -0.232 0
-6.1151e-17 -0.232 0
-1.79208e-17 -0.232 0
-6.68221e-17 -0.232 0
5.25763e-17 -0.232 0
2.08887e-16 -0.232 0
-3.36173e-17 -0.232 0
-2.38173e-16 -0.232 0
-1.45344e-16 -0.232 0
2.91166e-16 -0.232 0
3.71286e-16 -0.232 0
-2.30763e-16 -0.232 0
-1.82508e-16 -0.232 0
8.16898e-17 -0.232 0
4.1457e-16 -0.232 0
1.68684e-17 -0.232 0
-6.96837e-16 -0.232 0
3.40326e-16 -0.232 0
6.68647e-17 -0.232 0
-2.71148e-16 -0.232 0
0.00105378 0.00174531 0
0.00203397 0.00102794 0
0.00268572 0.00469241 0
0.00231997 0.00300878 0
0.00114981 0.00326865 0
0.00281827 0.0083678 0
0.00211697 0.00390668 0
0.00130112 0.00671108 0
0.00206254 0.00224853 0
-0.000257546 0.00073892 0
0.000231045 0.00220749 0
0.00199304 -0.00693716 0
0.000490013 -0.0104917 0
0.000749819 -0.0122869 0
0.000934436 -0.0228507 0
0.00205714 -0.0293907 0
0.0040698 -0.0374337 0
0.00350693 -0.0474872 0
0.0027805 -0.0550166 0
0.00250341 -0.0629524 0
0.00329211 -0.0691254 0
0.00519016 -0.075478 0
0.00528519 -0.0803753 0
0.00396874 -0.0853703 0
0.00305408 -0.0918256 0
0.00306983 -0.0968862 0
0.00426231 -0.100675 0
0.00574556 -0.104162 0
0.00557527 -0.106738 0
0.00325944 -0.109069 0
0.00033651 -0.112937 0
-0.00169895 -0.119167 0
-0.00267007 -0.127577 0
-0.00296119 -0.137386 0
-0.00259425 -0.14748 0
-0.00139559 -0.157211 0
0.000442003 -0.166692 0
0.00232943 -0.176071 0
0.00370845 -0.185003 0
0.00438797 -0.193005 0
0.00454851 -0.199996 0
0.00451417 -0.206272 0
0.00451845 -0.212093 0
0.0046157 -0.217419 0
0.00472311 -0.221993 0
0.00471406 -0.225586 0
0.00449859 -0.22815 0
0.00406053 -0.229818 0
0.00345195 -0.230818 0
0.0027625 -0.231378 0
0.00208407 -0.231677 0
0.00148564 -0.231831 0
0.00100342 -0.231911 0
0.000643936 -0.231952 0
0.000393711 -0.231974 0
0.00022994 -0.231986 0
0.000128589 -0.231993 0
6.90109e-05 -0.231996 0
3.56162e-05 -0.231998 0
1.77098e-05 -0.231999 0
8.49914e-06 -0.232 0
3.943e-06 -0.232 0
1.77098e-06 -0.232 0
7.71139e-07 -0.232 0
3.25937e-07 -0.232 0
1.33885e-07 -0.232 0
5.35058e-08 -0.232 0
2.08251e-08 -0.232 0
7.90142e-09 -0.232 0
2.92504e-09 -0.232 0
1.0575e-09 -0.232 0
3.73568e-10 -0.232 0
1.29049e-10 -0.232 0
4.36385e-11 -0.232 0
1.44617e-11 -0.232 0
4.69488e-12 -0.232 0
1.49112e-12 -0.232 0
4.76359e-13 -0.232 0
1.23064e-13 -0.232 0
1.47669e-14 -0.232 0
8.748e-16 -0.232 0
-3.97245e-17 -0.232 0
1.30518e-16 -0.232 0
1.02449e-16 -0.232 0
7.14902e-17 -0.232 0
-1.60698e-17 -0.232 0
-1.09077e-16 -0.232 0
-1.61771e-16 -0.232 0
-1.99124e-16 -0.232 0
1.55653e-16 -0.232 0
1.19966e-17 -0.232 0
2.1598e-17 -0.232 0
2.09322e-16 -0.232 0
2.90169e-16 -0.232 0
1.59154e-16 -0.232 0
-7.45294e-16 -0.232 0
-2.3013e-16 -0.232 0
5.44217e-16 -0.232 0
6.44764e-17 -0.232 0
-2.20504e-16 -0.232 0
0.00119326 -0.000318294 0
0.00190194 -0.000139564 0
0.00320226 0.00127199 0
0.0015051 0.00128532 0
-0.000450612 0.00526664 0
0.00158664 0.00834648 0
0.000647221 0.00803248 0
0.00161448 0.00938772 0
0.00333607 0.00530095 0
0.00159511 0.00161606 0
0.000622437 -0.00130317 0
0.00219865 -0.00623874 0
0.00153553 -0.0112902 0
0.00154177 -0.0140739 0
0.00128728 -0.0236847 0
0.00197427 -0.0297875 0
0.00459207 -0.0395892 0
0.0052657 -0.046203 0
0.00370875 -0.0548452 0
0.00110645 -0.0615725 0
0.0025973 -0.0676879 0
0.00518619 -0.0760064 0
0.00471203 -0.0805109 0
0.00325613 -0.0851266 0
0.00238607 -0.0917318 0
0.00240267 -0.0974728 0
0.00404419 -0.101439 0
0.00617808 -0.104167 0
0.0063512 -0.10598 0
0.00393418 -0.108384 0
0.000559101 -0.112857 0
-0.0019751 -0.119583 0
-0.00312434 -0.12813 0
-0.00323918 -0.137825 0
-0.00263193 -0.147789 0
-0.00133188 -0.157502 0
0.000525221 -0.166993 0
0.00245928 -0.176276 0
0.00389665 -0.185031 0
0.00456649 -0.192935 0
0.0046285 -0.2 0
0.00446743 -0.206461 0
0.00439242 -0.212431 0
0.00448701 -0.217769 0
0.0046464 -0.222219 0
0.0047023 -0.225621 0
0.0045334 -0.22801 0
0.00411329 -0.229567 0
0.00349997 -0.230529 0
0.00279485 -0.231108 0
0.00209981 -0.231454 0
0.00148908 -0.231666 0
0.00100002 -0.231797 0
0.000638013 -0.231879 0
0.000387861 -0.23193 0
0.000225282 -0.231961 0
0.000125332 -0.231979 0