<?xml version='1.0' encoding='UTF-8'?>
<VTKFile byte_order='LittleEndian' version='0.1' type = 'UnstructuredGrid'>
<UnstructuredGrid>
<FieldData>
<DataArray type='Float64' Name='Time' NumberOfComponents='1' NumberOfTuples='1' format='ascii'>
4.201
</DataArray>
</FieldData>
<Piece NumberOfCells='808' NumberOfPoints='808'>
<Points>
<DataArray NumberOfComponents='3' type='Float64' Name='position' format='ascii'>
-0.00174074 -0.000572589 0
-0.00143384 0.0248959 0
-0.00945814 0.0488245 0
-0.00350519 0.08189 0
-0.005666 0.0980517 0
-0.000428193 0.125437 0
-0.00233332 0.15307 0
-0.00515465 0.176955 0
0.0250193 -0.000901088 0
0.0504872 -0.00153111 0
0.0746093 -0.00243694 0
0.0971831 -0.00167079 0
0.124556 -0.002637 0
0.153243 -0.00380156 0
0.175279 -0.00815508 0
0.200814 -0.0139207 0
0.213715 -0.00884176 0
0.233446 -0.00642808 0
0.251653 -0.026147 0
0.296375 -0.0278316 0
0.314648 -0.0435058 0
0.334615 -0.00144096 0
0.348101 -0.270377 0
0.382013 -0.246783 0
0.40734 -0.267719 0
0.433305 -0.280114 0
0.45641 -0.28038 0
0.479656 -0.317175 0
0.502411 -0.352687 0
0.535834 -0.37849 0
0.569892 -0.396066 0
0.604795 -0.42249 0
0.61808 -0.40854 0
0.663009 -0.409494 0
0.684584 -0.477489 0
0.694235 -0.494463 0
0.715652 -0.527102 0
0.732054 -0.546547 0
0.779603 -0.541071 0
0.793198 -0.552751 0
0.800764 -0.573496 0
0.838755 -0.60489 0
0.891372 -0.603987 0
0.884274 -0.689585 0
0.906178 -0.696172 0
0.957977 -0.727505 0
0.97758 -0.71172 0
1.00148 -0.733513 0
1.03755 -0.754943 0
1.06051 -0.781456 0
1.1128 -0.760931 0
1.08877 -0.831764 0
1.13684 -0.887398 0
1.1572 -0.851522 0
1.1926 -0.859579 0
1.21395 -0.897581 0
1.2364 -0.901721 0
1.26425 -0.896982 0
1.28071 -0.908385 0
1.28968 -0.948155 0
1.32199 -0.978039 0
1.3376 -1.02161 0
1.36185 -1.03276 0
1.41352 -1.03828 0
1.44573 -1.05721 0
1.44192 -1.06948 0
1.46007 -1.07613 0
1.51109 -1.09062 0
1.53631 -1.11221 0
1.5593 -1.12637 0
1.5743 -1.14289 0
1.59226 -1.15193 0
1.62925 -1.16609 0
1.64446 -1.17197 0
1.67273 -1.19674 0
1.70936 -1.21979 0
1.72582 -1.21962 0
1.74007 -1.21735 0
1.76457 -1.23129 0
1.79305 -1.25127 0
1.82019 -1.26073 0
1.84306 -1.26299 0
1.86188 -1.27001 0
1.88491 -1.28366 0
1.91584 -1.29706 0
1.94437 -1.30545 0
1.9644 -1.30943 0
1.98392 -1.31346 0
2.01039 -1.32299 0
2.04055 -1.33704 0
2.06695 -1.34688 0
2.08804 -1.34979 0
2.10901 -1.35238 0
2.13384 -1.3605 0
2.16141 -1.37181 0
2.1888 -1.37992 0
2.21473 -1.38334 0
2.23831 -1.38485 0
2.26027 -1.38744 0
2.2839 -1.39198 0
2.31101 -1.39679 0
2.33937 -1.40016 0
2.36574 -1.40195 0
2.38998 -1.40251 0
2.41388 -1.40289 0
2.43857 -1.40398 0
2.46394 -1.40568 0
2.48926 -1.40726 0
0.0373381 0.0250827 0
0.0530341 0.0399473 0
0.0676412 0.0154934 0
0.0938887 0.0147865 0
0.118293 0.00826755 0
0.140887 0.0125404 0
0.174509 0.00651889 0
0.187703 0.00884108 0
0.202263 0.00872705 0
0.21423 0.0121937 0
0.256792 -0.00424463 0
0.298717 0.000197239 0
0.316908 -0.0334634 0
0.335405 -0.0275497 0
0.368694 -0.238116 0
0.395933 -0.229862 0
0.444996 -0.235454 0
0.439329 -0.227145 0
0.449428 -0.26423 0
0.487555 -0.281052 0
0.520246 -0.316993 0
0.537289 -0.301276 0
0.574319 -0.326478 0
0.600016 -0.374602 0
0.642826 -0.402528 0
0.658529 -0.422772 0
0.664851 -0.450175 0
0.700826 -0.475232 0
0.709976 -0.490467 0
0.731344 -0.501843 0
0.754233 -0.515295 0
0.804052 -0.537471 0
0.822212 -0.546193 0
0.848176 -0.608245 0
0.890963 -0.584407 0
0.880486 -0.674209 0
0.923969 -0.675359 0
0.942768 -0.697354 0
0.97637 -0.689781 0
0.999598 -0.702029 0
1.01082 -0.717677 0
1.06977 -0.752444 0
1.08762 -0.763285 0
1.10259 -0.786193 0
1.13367 -0.822922 0
1.16383 -0.833867 0
1.19292 -0.828752 0
1.20554 -0.849861 0
1.22899 -0.866253 0
1.26984 -0.869608 0
1.28618 -0.8999 0
1.31503 -0.945431 0
1.32623 -0.944771 0
1.34657 -0.966859 0
1.36023 -0.997907 0
1.40567 -1.006 0
1.44554 -1.0277 0
1.4518 -1.04763 0
1.48175 -1.05915 0
1.50846 -1.07758 0
1.52656 -1.07865 0
1.55939 -1.09907 0
1.56949 -1.11486 0
1.60048 -1.12969 0
1.62673 -1.13506 0
1.64573 -1.15233 0
1.67186 -1.17273 0
1.70043 -1.18329 0
1.7243 -1.18788 0
1.74435 -1.19544 0
1.76568 -1.21001 0
1.79198 -1.22554 0
1.81961 -1.23403 0
1.84219 -1.23823 0
1.8623 -1.2458 0
1.88688 -1.25915 0
1.91553 -1.27194 0
1.94192 -1.27887 0
1.96393 -1.28316 0
1.9859 -1.28984 0
2.01188 -1.30066 0
2.03984 -1.3121 0
2.06495 -1.31932 0
2.08713 -1.32329 0
2.11005 -1.32824 0
2.13535 -1.3372 0
2.16181 -1.34761 0
2.18807 -1.3547 0
2.2137 -1.35753 0
2.23779 -1.35899 0
2.2609 -1.36238 0
2.28508 -1.36737 0
2.31142 -1.3724 0
2.33872 -1.37544 0
2.36493 -1.37669 0
2.3897 -1.37725 0
2.41408 -1.37799 0
2.43887 -1.37927 0
2.46407 -1.38077 0
2.4892 -1.38193 0
0.0175673 0.0520215 0
0.039268 0.0465233 0
0.076857 0.043762 0
0.0943806 0.0294537 0
0.125729 0.0278058 0
0.13349 0.0440147 0
0.157792 0.0324425 0
0.191849 0.0411596 0
0.225281 0.0319293 0
0.223253 0.0206051 0
0.2612 0.00895157 0
0.309029 -0.000622798 0
0.321166 -0.0243118 0
0.345441 -0.0241154 0
0.380494 -0.017769 0
0.402417 -0.222004 0
0.441682 -0.206603 0
0.445467 -0.216539 0
0.463835 -0.224479 0
0.501182 -0.231323 0
0.512759 -0.273179 0
0.557142 -0.296844 0
0.59167 -0.307502 0
0.581078 -0.357198 0
0.634142 -0.377441 0
0.656598 -0.380893 0
0.672225 -0.415963 0
0.701944 -0.431852 0
0.713765 -0.4276 0
0.722829 -0.461223 0
0.746714 -0.470992 0
0.793753 -0.484912 0
0.826179 -0.531573 0
0.827803 -0.555564 0
0.867911 -0.568519 0
0.89985 -0.633325 0
0.916492 -0.647918 0
0.952454 -0.656698 0
0.95781 -0.665976 0
0.974248 -0.672162 0
1.03304 -0.696796 0
1.06675 -0.703654 0
1.09984 -0.733393 0
1.12001 -0.768827 0
1.12654 -0.794964 0
1.15839 -0.802981 0
1.1994 -0.812426 0
1.21763 -0.817863 0
1.23916 -0.869662 0
1.26698 -0.857095 0
1.28265 -0.867861 0
1.30774 -0.892504 0
1.33404 -0.933057 0
1.35601 -0.952788 0
1.37726 -0.956184 0
1.40557 -0.975672 0
1.43163 -1.00632 0
1.45929 -1.01712 0
1.47503 -1.03095 0
1.50325 -1.05043 0
1.54274 -1.05715 0
1.55431 -1.07557 0
1.56325 -1.0871 0
1.60352 -1.10775 0
1.63256 -1.11141 0
1.64408 -1.12644 0
1.66752 -1.14746 0
1.70029 -1.15403 0
1.72373 -1.15844 0
1.74334 -1.17352 0
1.76662 -1.18788 0
1.79236 -1.19888 0
1.81876 -1.20812 0
1.8419 -1.21359 0
1.86261 -1.22138 0
1.88759 -1.23425 0
1.91564 -1.24595 0
1.94072 -1.25278 0
1.9634 -1.25846 0
1.98715 -1.26647 0
2.01293 -1.27708 0
2.03927 -1.28632 0
2.06359 -1.29242 0
2.08638 -1.29758 0
2.11065 -1.3047 0
2.1366 -1.31357 0
2.16237 -1.32275 0
2.18747 -1.32893 0
2.21265 -1.3319 0
2.23747 -1.33362 0
2.2615 -1.33733 0
2.28595 -1.34279 0
2.31178 -1.3477 0
2.33831 -1.35031 0
2.36427 -1.3514 0
2.38938 -1.35221 0
2.41419 -1.35328 0
2.43913 -1.35461 0
2.4642 -1.35579 0
2.48917 -1.35649 0
0.0064983 0.0595356 0
0.0370025 0.0611601 0
0.0723857 0.0741864 0
0.0959869 0.0710924 0
0.131224 0.0669795 0
0.140547 0.0614761 0
0.164689 0.0569264 0
0.19902 0.0707821 0
0.216342 0.0524626 0
0.241345 0.0350259 0
0.270906 0.0151264 0
0.303514 0.0221118 0
0.320286 -0.0136795 0
0.343697 -0.0124304 0
0.374678 -0.00963462 0
0.397889 -0.195762 0
0.400656 -0.211543 0
0.44377 -0.183671 0
0.473772 -0.186138 0
0.490894 -0.20609 0
0.498687 -0.253095 0
0.539155 -0.26573 0
0.568956 -0.271661 0
0.58486 -0.325943 0
0.631754 -0.353084 0
0.643296 -0.384131 0
0.675382 -0.382441 0
0.718065 -0.395812 0
0.722664 -0.413558 0
0.75844 -0.424874 0
0.782511 -0.446166 0
0.796464 -0.462127 0
0.829883 -0.498135 0
0.850984 -0.517787 0
0.839414 -0.538539 0
0.89334 -0.571259 0
0.909979 -0.602108 0
0.953024 -0.620441 0
0.990579 -0.646942 0
1.019 -0.647315 0
1.03276 -0.6868 0
1.05808 -0.697298 0
1.05763 -0.716918 0
1.08347 -0.724811 0
1.1321 -0.762449 0
1.16299 -0.771552 0
1.16745 -0.782724 0
1.20194 -0.795733 0
1.23353 -0.833364 0
1.25653 -0.853864 0
1.28289 -0.853175 0
1.30759 -0.872341 0
1.31801 -0.903022 0
1.34686 -0.931773 0
1.39158 -0.942914 0
1.4098 -0.947664 0
1.42441 -0.968196 0
1.455 -0.993326 0
1.48321 -1.0143 0
1.51102 -1.02456 0
1.53587 -1.02895 0
1.5532 -1.04472 0
1.56977 -1.0673 0
1.59907 -1.07414 0
1.62915 -1.08612 0
1.6482 -1.10741 0
1.66825 -1.11923 0
1.69802 -1.12457 0
1.72481 -1.13454 0
1.74297 -1.14871 0
1.76477 -1.16381 0
1.7932 -1.17385 0
1.81896 -1.18004 0
1.84074 -1.18902 0
1.86331 -1.19897 0
1.88851 -1.20874 0
1.91493 -1.21883 0
1.94012 -1.22745 0
1.96365 -1.23416 0
1.98762 -1.24316 0
2.01339 -1.25273 0
2.03906 -1.25977 0
2.06258 -1.26587 0
2.08592 -1.27317 0
2.11133 -1.28129 0
2.13747 -1.28939 0
2.16244 -1.29725 0
2.18685 -1.30316 0
2.21199 -1.30619 0
2.23739 -1.30876 0
2.26209 -1.31291 0
2.28666 -1.31809 0
2.31199 -1.32255 0
2.33794 -1.3249 0
2.36374 -1.32615 0
2.38912 -1.32735 0
2.41429 -1.32871 0
2.43935 -1.32998 0
2.46429 -1.33077 0
2.48911 -1.33106 0
-0.000867899 0.107983 0
0.0341138 0.0872387 0
0.0732515 0.0926388 0
0.0949799 0.10309 0
0.113874 0.0974251 0
0.137355 0.0894126 0
0.157269 0.0818828 0
0.211851 0.0663399 0
0.227425 0.0594047 0
0.262505 0.0550296 0
0.27395 0.0328498 0
0.302216 0.0374156 0
0.319415 0.0169199 0
0.362078 0.0013413 0
0.394555 -0.0150024 0
0.388603 -0.0234703 0
0.447207 -0.140996 0
0.442788 -0.15825 0
0.483808 -0.173279 0
0.499983 -0.190475 0
0.533137 -0.221423 0
0.546101 -0.255444 0
0.564269 -0.256415 0
0.600999 -0.279418 0
0.602701 -0.334102 0
0.650068 -0.370767 0
0.676912 -0.356832 0
0.706893 -0.352268 0
0.739227 -0.359032 0
0.75665 -0.40357 0
0.799783 -0.408659 0
0.815588 -0.441884 0
0.809852 -0.485906 0
0.85012 -0.479167 0
0.873241 -0.510162 0
0.888643 -0.528133 0
0.920613 -0.556726 0
0.944118 -0.598713 0
1.00078 -0.619019 0
1.02154 -0.617883 0
1.03425 -0.651485 0
1.04548 -0.659831 0
1.08681 -0.683049 0
1.09903 -0.709358 0
1.13926 -0.726946 0
1.18923 -0.760741 0
1.1793 -0.761908 0
1.20999 -0.782868 0
1.24134 -0.801107 0
1.26116 -0.821186 0
1.29176 -0.835556 0
1.31226 -0.881187 0
1.32866 -0.90385 0
1.352 -0.902476 0
1.3885 -0.907317 0
1.40953 -0.931672 0
1.43108 -0.953528 0
1.46104 -0.966786 0
1.48293 -0.983136 0
1.50284 -0.995569 0
1.53257 -1.00081 0
1.5575 -1.02351 0
1.57316 -1.04695 0
1.59538 -1.0495 0
1.62483 -1.05621 0
1.65029 -1.08214 0
1.67251 -1.09703 0
1.69711 -1.09641 0
1.72238 -1.10764 0
1.74402 -1.12749 0
1.76524 -1.13859 0
1.79151 -1.14546 0
1.81844 -1.15482 0
1.84126 -1.16464 0
1.86381 -1.17513 0
1.88896 -1.18447 0
1.91456 -1.19222 0
1.93939 -1.2014 0
1.96386 -1.211 0
1.98824 -1.21909 0
2.01341 -1.22703 0
2.03858 -1.23403 0
2.06223 -1.24035 0
2.08603 -1.2487 0
2.11185 -1.25784 0
2.13786 -1.26509 0
2.16212 -1.27103 0
2.18616 -1.27675 0
2.21168 -1.28128 0
2.23761 -1.2846 0
2.26265 -1.28863 0
2.28717 -1.29318 0
2.31206 -1.29692 0
2.33754 -1.29932 0
2.36329 -1.30102 0
2.38899 -1.30273 0
2.41449 -1.30425 0
2.43957 -1.30526 0
2.46431 -1.30571 0
2.489 -1.30579 0
0.0136733 0.106404 0
0.0482624 0.118879 0
0.0617755 0.118611 0
0.117157 0.113037 0
0.129594 0.136004 0
0.141355 0.11537 0
0.180975 0.107225 0
0.209955 0.100592 0
0.230361 0.0851713 0
0.250548 0.075384 0
0.267496 0.0755315 0
0.299089 0.0551536 0
0.319863 0.0360985 0
0.349222 0.0043689 0
0.392847 0.000592977 0
0.397081 -0.0297078 0
0.424079 -0.079792 0
0.433873 -0.101492 0
0.464698 -0.142545 0
0.50686 -0.150105 0
0.520786 -0.193358 0
0.545329 -0.21772 0
0.583354 -0.239114 0
0.609987 -0.261958 0
0.642979 -0.301779 0
0.656311 -0.307871 0
0.67301 -0.317256 0
0.709921 -0.309737 0
0.757837 -0.346724 0
0.7872 -0.362333 0
0.814854 -0.403876 0
0.815504 -0.417189 0
0.818863 -0.478641 0
0.853372 -0.488623 0
0.86887 -0.462866 0
0.899074 -0.514989 0
0.904686 -0.523614 0
0.926756 -0.547842 0
0.973816 -0.60039 0
1.0139 -0.624814 0
1.02873 -0.595311 0
1.05477 -0.626145 0
1.07441 -0.64192 0
1.09908 -0.680234 0
1.14508 -0.71872 0
1.17104 -0.72111 0
1.19681 -0.749338 0
1.21159 -0.755603 0
1.22946 -0.771522 0
1.25697 -0.789815 0
1.28189 -0.815781 0
1.29795 -0.850079 0
1.3358 -0.873764 0
1.35713 -0.87919 0
1.38906 -0.892699 0
1.4087 -0.909349 0
1.43308 -0.926027 0
1.46543 -0.94161 0
1.47881 -0.94926 0
1.49495 -0.960222 0
1.53357 -0.983131 0
1.56275 -1.00791 0
1.57456 -1.01771 0
1.59344 -1.01938 0
1.62424 -1.03542 0
1.65167 -1.05795 0
1.67397 -1.06722 0
1.69694 -1.07075 0
1.72032 -1.08467 0
1.74328 -1.10265 0
1.76707 -1.11256 0
1.79146 -1.11867 0
1.81603 -1.12898 0
1.84106 -1.14114 0
1.86563 -1.1516 0
1.88957 -1.15931 0
1.91375 -1.16649 0
1.9386 -1.1762 0
1.96377 -1.1865 0
1.98893 -1.19445 0
2.01376 -1.20156 0
2.03793 -1.20831 0
2.06191 -1.21579 0
2.08675 -1.22495 0
2.11244 -1.23355 0
2.13742 -1.23983 0
2.16137 -1.24533 0
2.18583 -1.25079 0
2.21172 -1.2562 0
2.23793 -1.26054 0
2.26318 -1.26468 0
2.28758 -1.26807 0
2.31196 -1.27089 0
2.33704 -1.27356 0
2.36291 -1.27619 0
2.38906 -1.27846 0
2.4148 -1.27981 0
2.43977 -1.28032 0
2.46428 -1.28055 0
2.4889 -1.28076 0
0.0119868 0.142482 0
0.0221273 0.148754 0
0.0608053 0.154613 0
0.0973426 0.14268 0
0.103307 0.126819 0
0.131943 0.148443 0
0.163417 0.122882 0
0.21102 0.115662 0
0.229955 0.116348 0
0.255986 0.102412 0
0.276487 0.0865156 0
0.292675 0.068819 0
0.323144 0.0603088 0
0.352371 0.0199354 0
0.386997 -0.00757352 0
0.427196 -0.000782389 0
0.377496 -0.0700028 0
0.423183 -0.0904501 0
0.463882 -0.105254 0
0.52096 -0.123752 0
0.540265 -0.137199 0
0.552255 -0.197361 0
0.552295 -0.209913 0
0.632012 -0.23538 0
0.625275 -0.264966 0
0.652763 -0.274285 0
0.686062 -0.304329 0
0.712182 -0.279732 0
0.755116 -0.295808 0
0.782607 -0.350659 0
0.800377 -0.374753 0
0.807377 -0.396423 0
0.841138 -0.411731 0
0.844124 -0.462042 0
0.852227 -0.45145 0
0.889502 -0.473785 0
0.933786 -0.512435 0
0.937889 -0.547325 0
0.970216 -0.578188 0
1.02368 -0.604177 0
1.0399 -0.596227 0
1.06555 -0.594843 0
1.087 -0.619108 0
1.10036 -0.633144 0
1.13494 -0.66778 0
1.1583 -0.693307 0
1.19348 -0.716061 0
1.21524 -0.734398 0
1.21979 -0.749188 0
1.25824 -0.764325 0
1.2789 -0.786846 0
1.32006 -0.808951 0
1.33343 -0.834759 0
1.35419 -0.856236 0
1.39383 -0.864727 0
1.41114 -0.887063 0
1.42846 -0.897811 0
1.46184 -0.908227 0
1.48406 -0.923298 0
1.49861 -0.938562 0
1.52733 -0.962843 0
1.55889 -0.981641 0
1.57985 -0.986951 0
1.59901 -0.996883 0
1.62325 -1.01745 0
1.6504 -1.03132 0
1.67566 -1.03587 0
1.69651 -1.0464 0
1.71695 -1.06262 0
1.7427 -1.07664 0
1.7698 -1.08596 0
1.79221 -1.09258 0
1.81357 -1.10353 0
1.83963 -1.11826 0
1.86751 -1.12788 0
1.89137 -1.13362 0
1.91267 -1.14109 0
1.93675 -1.15149 0
1.96381 -1.16162 0
1.99023 -1.16939 0
2.0142 -1.1758 0
2.03718 -1.18311 0
2.06154 -1.19226 0
2.08755 -1.20121 0
2.11306 -1.20829 0
2.13678 -1.21423 0
2.16026 -1.2197 0
2.18545 -1.22541 0
2.2121 -1.23126 0
2.23857 -1.23679 0
2.26373 -1.24064 0
2.28773 -1.24276 0
2.31157 -1.24455 0
2.33649 -1.24772 0
2.3627 -1.25176 0
2.38931 -1.25454 0
2.41517 -1.25527 0
2.43991 -1.25509 0
2.46421 -1.2553 0
2.48882 -1.25596 0
0.00531002 0.162758 0
0.0111244 0.153531 0
0.0470656 0.138647 0
0.0911781 0.175857 0
0.100657 0.16501 0
0.158732 0.168053 0
0.174121 0.152341 0
0.185168 0.144812 0
0.226454 0.156467 0
0.263922 0.142817 0
0.278966 0.103865 0
0.31002 0.0929915 0
0.307594 0.0609148 0
0.331664 0.0495425 0
0.383588 0.027605 0
0.441699 0.0282337 0
0.450372 0.00605727 0
0.47189 -0.0400689 0
0.455049 -0.0688786 0
0.498443 -0.0860284 0
0.536435 -0.0888596 0
0.563841 -0.196194 0
0.562274 -0.211962 0
0.609071 -0.207582 0
0.643331 -0.256994 0
0.664166 -0.244631 0
0.682563 -0.266682 0
0.695991 -0.259202 0
0.716535 -0.269294 0
0.766958 -0.268642 0
0.787637 -0.372323 0
0.791345 -0.397654 0
0.828458 -0.406105 0
0.835501 -0.446867 0
0.886264 -0.417189 0
0.876344 -0.415877 0
0.914964 -0.496445 0
0.958356 -0.506918 0
0.992343 -0.481732 0
1.00185 -0.577432 0
1.0331 -0.566377 0
1.05902 -0.574896 0
1.07518 -0.592172 0
1.09721 -0.612358 0
1.118 -0.629883 0
1.15633 -0.667041 0
1.18623 -0.696926 0
1.21294 -0.681566 0
1.22734 -0.707821 0
1.24717 -0.742709 0
1.29283 -0.777071 0
1.318 -0.761704 0
1.32726 -0.792421 0
1.35282 -0.834583 0
1.39457 -0.837212 0
1.4073 -0.851315 0
1.4272 -0.881978 0
1.45951 -0.880965 0
1.49398 -0.897171 0
1.49952 -0.911673 0
1.51659 -0.938876 0
1.55524 -0.961613 0
1.58859 -0.963778 0
1.6051 -0.973608 0
1.61991 -0.993833 0
1.6484 -1.00654 0
1.67846 -1.01067 0
1.69622 -1.01994 0
1.71281 -1.03771 0
1.74152 -1.0531 0
1.77329 -1.05997 0
1.79407 -1.06598 0
1.81059 -1.07895 0
1.83715 -1.09484 0
1.86969 -1.10467 0
1.89425 -1.10815 0
1.91148 -1.11424 0
1.93358 -1.12639 0
1.96381 -1.13818 0
1.99269 -1.1445 0
2.01487 -1.14947 0
2.03586 -1.1584 0
2.06094 -1.1692 0
2.08853 -1.17712 0
2.11378 -1.18285 0
2.13614 -1.18846 0
2.15907 -1.1945 0
2.18487 -1.20026 0
2.21259 -1.20696 0
2.23952 -1.21324 0
2.26439 -1.21662 0
2.28755 -1.21691 0
2.31086 -1.21795 0
2.33596 -1.22238 0
2.36269 -1.22786 0
2.38972 -1.23079 0
2.41557 -1.23056 0
2.43999 -1.22959 0
2.46407 -1.22997 0
2.48877 -1.23132 0
</DataArray>
</Points>
<PointData>
<DataArray NumberOfComponents='1' type='Int32' Name='Particle Type' format='ascii'>
0
0
0
0
0
0
0
0
0
0
0
0
0
0
0
0
0
0
0
0
0
0
1
1
1
1
1
1
1
1
1
1
1
1
1
1
1
1
1
1
1
1
1
1
1
1
1
1
1
1
1
1
1
1
1
1
1
1
1
1
1
1
1
1
1
1
1
1
1
1
1
1
1
1
1
1
1
1
1
1
1
1
1
1
1
1
1
1
1
1
1
1
1
1
1
1
1
1
1
1
1
1
1
1
1
1
1
1
1
1
1
1
1
1
1
1
1
1
1
1
1
1
1
1
1
1
1
1
1
1
1
1
1
1
1
1
1
1
1
1
1
1
1
1
1
1
1
1
1
1
1
1
1
1
1
1
1
1
1
1
1
1
1
1
1
1
1
1
1
1
1
1
1
1
1
1
1
1
1
1
1
1
1
1
1
1
1
1
1
1
1
1
1
1
1
1
1
1
1
1
1
1
1
1
1
1
1
1
1
1
1
1
1
1
1
1
1
1
1
1
1
1
1
1
1
1
1
1
1
1
1
1
1
1
1
1
1
1
1
1
1
1
1
1
1
1
1
1
1
1
1
1
1
1
1
1
1
1
1
1
1
1
1
1
1
1
1
1
1
1
1
1
1
1
1
1
1
1
1
1
1
1
1
1
1
1
1
1
1
1
1
1
1
1
1
1
1
1
1
1
1
1
1
1
1
1
1
1
1
1
1
1
1
1
1
1
1
1
1
1
1
1
1
1
1
1
1
1
1
1
1
1
1
1
1
1
1
1
1
1
1
1
1
1
1
1
1
1
1
1
1
1
1
1
1
1
1
1
1
1
1
1
1
1
1
1
1
1
1
1
1
1
1
1
1
1
1
1
1
1
1
1
1
1
1
1
1
1
1
1
1
1
1
1
1
1
1
1
1
1
1
1
1
1
1
1
1
1
1
1
1
1
1
1
1
1
1
1
1
1
1
1
1
1
1
1
1
1
1
1
1
1
1
1
1
1
1
1
1
1
1
1
1
1
1
1
1
1
1
1
1
1
1
1
1
1
1
1
1
1
1
1
1
1
1
1
1
1
1
1
1
1
1
1
1
1
1
1
1
1
1
1
1
1
1
1
1
1
1
1
1
1
1
1
1
1
1
1
1
1
1
1
1
1
1
1
1
1
1
1
1
1
1
1
1
1
1
1
1
1
1
1
1
1
1
1
1
1
1
1
1
1
1
1
1
1
1
1
1
1
1
1
1
1
1
1
1
1
1
1
1
1
1
1
1
1
1
1
1
1
1
1
1
1
1
1
1
1
1
1
1
1
1
1
1
1
1
1
1
1
1
1
1
1
1
1
1
1
1
1
1
1
1
1
1
1
1
1
1
1
1
1
1
1
1
1
1
1
1
1
1
1
1
1
1
1
1
1
1
1
1
1
1
1
1
1
1
1
1
1
1
1
1
1
1
1
1
1
1
1
1
1
1
1
1
1
1
1
1
1
1
1
1
1
1
1
1
1
1
1
1
1
1
1
1
1
1
1
1
1
1
1
1
1
1
1
1
1
1
1
1
1
1
1
1
1
1
1
1
1
1
1
1
1
1
1
1
1
1
1
1
1
1
1
1
1
1
1
1
1
1
1
1
1
1
1
1
1
1
1
1
1
1
1
1
1
1
1
1
1
1
1
1
1
1
1
1
1
1
1
1
1
1
1
1
1
1
1
1
1
1
1
1
1
1
1
1
1
1
1
1
1
1
1
1
1
1
1
1
1
1
1
1
1
1
1
1
1
1
1
1
1
1
1
1
1
1
1
1
1
1
1
1
1
1
1
1
1
1
1
1
1
1
1
1
1
1
1
</DataArray>
<DataArray NumberOfComponents='3' type='Float64' Name='Velocity' format='ascii'>
-0.735699 -0.250069 0
-0.471442 0.0583466 0
-1.07722 -0.0829008 0
-0.469878 0.544375 0
-0.780329 -0.107387 0
-0.0375138 0.336517 0
-0.630034 0.430136 0
-0.772271 0.333739 0
0.107389 -0.408196 0
0.0415355 -0.657705 0
0.136195 -0.516678 0
-0.245806 -0.396407 0
0.0337184 -0.468349 0
0.376891 -0.837306 0
-0.146835 -0.834983 0
0.061625 -0.975356 0
-0.593831 -0.324714 0
-0.912366 -0.492835 0
-0.855123 -0.261107 0
0.955353 -0.540594 0
0.0245939 -0.7824 0
0.267661 -0.0743826 0
-0.0207239 -0.606309 0
0.809961 -0.5778 0
0.547103 -0.296093 0
0.685129 -0.341927 0
-1.22686 -1.64863 0
0.192422 0.519002 0
-0.471164 0.666088 0
-0.523637 0.30883 0
-0.390844 -1.06299 0
0.0252248 0.0798973 0
-0.471785 -0.472853 0
1.11559 -0.389609 0
0.277289 0.735925 0
-0.218066 -1.48829 0
0.202223 0.279288 0
-0.119455 -0.0733856 0
0.0223195 -1.00857 0
0.297291 -0.74287 0
-0.163176 1.1409 0
-0.148768 0.147347 0
0.380299 -0.941324 0
-0.599237 -1.2489 0
-0.535656 -0.690334 0
-0.621024 -0.420495 0
-0.66254 -0.415767 0
1.08686 -0.846013 0
0.0322099 0.0910063 0
-0.0572748 -1.26598 0
-0.320608 -0.331637 0
0.324514 0.595929 0
-0.0667679 -0.0876027 0
0.221887 -2.1502 0
0.283121 0.939852 0
0.229294 0.0372411 0
-0.423478 -0.515992 0
-0.554788 -0.100387 0
1.34193 -0.443312 0
-0.165692 0.180501 0
-0.605896 -0.156785 0
0.560115 0.594797 0
-0.541905 -0.699631 0
-0.558765 -0.475702 0
0.52751 -1.0401 0
0.637115 -0.391419 0
-0.468864 -0.630071 0
-0.43515 -0.289401 0
0.24836 0.0894241 0
-0.0385334 -0.337399 0
0.60823 -0.76381 0
-0.318254 -0.21844 0
-0.270002 -0.396241 0
0.501015 -0.573521 0
-0.500513 0.213131 0
-0.0516617 -0.412122 0
0.390838 -0.827638 0
0.195374 -0.556549 0
-0.0835032 -0.0772658 0
-0.117582 -0.17239 0
-0.0126744 -0.501796 0
0.149271 -0.505335 0
0.146578 -0.260921 0
-0.106203 -0.134048 0
-0.216615 -0.233991 0
0.0181228 -0.395286 0
0.195295 -0.458155 0
0.0537714 -0.350494 0
-0.160916 -0.158992 0
-0.164394 -0.14916 0
0.0121663 -0.364837 0
0.132372 -0.495803 0
0.0571841 -0.37985 0
-0.0696403 -0.218346 0
-0.11461 -0.21461 0
-0.0885349 -0.338375 0
-0.0149131 -0.418481 0
0.0650825 -0.383723 0
0.070582 -0.292679 0
-0.0227321 -0.230413 0
-0.10534 -0.25171 0
-0.0818395 -0.300832 0
-0.00456322 -0.334011 0
0.0309216 -0.335595 0
0.0123136 -0.310207 0
-0.0226192 -0.290323 0
-0.0401038 -0.288689 0
-0.0388165 -0.295146 0
0.394342 0.131877 0
0.120983 -0.380075 0
0.883737 0.183411 0
-0.458179 0.353179 0
-0.116271 0.032035 0
-0.229435 0.510441 0
-0.263944 -0.0641754 0
0.355875 -0.302536 0
0.57584 0.407384 0
-0.372721 -0.123723 0
0.00869219 -0.288838 0
-0.0484432 -0.164125 0
-0.198143 0.139784 0
0.228696 -0.110902 0
-0.944295 -0.762309 0
0.197772 -0.395854 0
0.307961 0.150604 0
0.973456 0.496483 0
-0.843787 -1.25221 0
0.248682 -0.918346 0
-0.0124938 0.221067 0
-0.220426 0.0831295 0
0.0405817 0.487369 0
0.576833 -0.69199 0
0.464923 -0.465398 0
0.150377 -0.308293 0
0.255002 -0.306518 0
-0.557557 -0.322973 0
0.0180797 -0.142472 0
-0.298051 -0.124995 0
-0.448525 -0.805649 0
0.416434 0.0429258 0
0.128689 -0.282506 0
0.0542889 0.667751 0
-0.295143 -0.106384 0
0.0427578 0.109195 0
0.430419 -1.35793 0
0.543292 0.0669615 0
-0.251885 -0.33444 0
0.14247 -0.334603 0
-0.852076 1.07249 0
0.504739 -0.0858773 0
0.505389 -0.201218 0
0.91188 -0.297574 0
-0.7102 -0.0572173 0
-0.16269 -0.737614 0
0.533139 -0.959161 0
0.440057 -0.778021 0
-0.236453 -0.495779 0
0.0801909 -1.13407 0
0.524634 0.29558 0
-0.215528 0.533163 0
0.521386 -1.13173 0
0.366931 -0.168455 0
-0.433302 -0.112998 0
-0.62987 -0.364863 0
-0.0162361 -0.0210508 0
0.16382 -0.171213 0
-0.118486 -0.270982 0
0.17131 -0.810156 0
-0.315779 -0.318277 0
0.339355 -0.391679 0
0.112335 -0.299944 0
-0.176863 -0.593405 0
0.150233 -0.455663 0
0.0675073 -0.0920095 0
-0.0902602 -0.310737 0
-0.0713619 -0.528151 0
0.0817299 -0.544815 0
0.153549 -0.348909 0
0.0438276 -0.173964 0
-0.105367 -0.271191 0
-0.0172063 -0.473074 0
0.144935 -0.464203 0
0.0884934 -0.271278 0
-0.093572 -0.146037 0
-0.122452 -0.261818 0
0.0161203 -0.414196 0
0.101479 -0.396616 0
0.0184985 -0.276734 0
-0.107318 -0.179751 0
-0.0938074 -0.259831 0
0.0233325 -0.391714 0
0.0653132 -0.427769 0
0.00734238 -0.331099 0
-0.0571556 -0.210842 0
-0.0703957 -0.249001 0
-0.0589641 -0.357202 0
-0.0181896 -0.42999 0
0.0348712 -0.364483 0
0.0367005 -0.273014 0
-0.0179327 -0.225452 0
-0.0702127 -0.256066 0
-0.0610245 -0.319271 0
-0.0129138 -0.342271 0
0.0135803 -0.325959 0
0.00344834 -0.297675 0
-0.0210889 -0.283071 0
-0.035691 -0.286172 0
-0.0372693 -0.294054 0
-0.617126 -0.554144 0
-0.103671 -0.214708 0
0.453424 -0.90903 0
0.224351 -0.147774 0
0.0888368 0.435904 0
0.549447 -1.09123 0
-0.412961 0.0390519 0
0.458409 0.630991 0
0.500919 0.796653 0
-0.500942 0.754434 0
-0.183252 -0.0667173 0
-0.226033 -0.0471281 0
0.233145 0.0125821 0
0.164675 0.433062 0
-0.00142116 -0.137496 0
0.790042 -0.665704 0
-1.29175 -1.02933 0
-0.165493 -0.879541 0
0.835733 -0.711056 0
-1.16477 -0.225536 0
0.0111187 -0.320425 0
0.561739 -0.497725 0
0.0141814 0.355416 0
-0.467534 -0.240279 0
-0.300255 -0.946778 0
-0.577706 -0.414983 0
-0.535751 0.491091 0
0.0394804 0.750605 0
-0.396349 -1.20794 0
0.485867 -0.699166 0
-1.2339 0.254224 0
0.09757 0.483336 0
0.120022 -0.292714 0
0.956445 0.237554 0
0.0448044 0.213951 0
-0.140918 0.209365 0
-0.53737 -0.314857 0
-0.725294 -0.292976 0
-0.322193 -0.36548 0
-0.00380756 0.320783 0
-0.00196045 -0.760587 0
-1.20965 -0.127916 0
-0.623435 0.575388 0
-0.437937 -0.578951 0
0.298287 -1.04184 0
-0.527253 0.351302 0
0.398781 -0.534753 0
-0.277337 -1.768 0
0.425121 0.693417 0
-0.162648 -0.803575 0
0.00494819 -1.21058 0
0.263449 0.407701 0
0.14178 0.25416 0
0.176805 -0.721397 0
-0.0155169 -0.779694 0
-0.0548608 0.16258 0
-0.0813906 -0.142113 0
0.0408145 -0.600731 0
0.189156 -0.107613 0
-0.427032 -0.39603 0
-0.196359 -0.467144 0
0.783299 -0.900548 0
-0.148903 0.0444643 0
-0.494736 -0.48666 0
0.272697 -0.593718 0
0.339979 -0.158676 0
-0.195113 -0.317203 0
-0.155429 -0.665374 0
0.140116 -0.384346 0
0.106372 -0.180686 0
0.00236544 -0.302714 0
-0.0507579 -0.329213 0
-0.0113855 -0.420097 0
0.123611 -0.455026 0
0.0803554 -0.275552 0
-0.0947271 -0.167637 0
-0.0870989 -0.287189 0
0.0327183 -0.379072 0
0.0479199 -0.350703 0
-0.015807 -0.257514 0
-0.0665511 -0.233452 0
-0.0457071 -0.328626 0
0.0276169 -0.394378 0
0.0282184 -0.3593 0
-0.0359987 -0.287945 0
-0.0595419 -0.236152 0
-0.0337722 -0.284136 0
-0.0226755 -0.363491 0
-0.0216299 -0.415236 0
0.00264415 -0.356908 0
0.0145071 -0.257851 0
-0.0151733 -0.222146 0
-0.0473235 -0.274633 0
-0.0429185 -0.333909 0
-0.0148962 -0.339774 0
0.000956861 -0.313467 0
-0.00627751 -0.287409 0
-0.0226922 -0.278856 0
-0.0319916 -0.284769 0
-0.0326577 -0.29191 0
-0.702416 1.01909 0
-0.424547 0.254002 0
0.401274 -0.333133 0
-1.42447 0.577688 0
-0.342007 -0.234742 0
0.182202 0.0741826 0
0.494922 -0.538433 0
-0.0354734 0.369095 0
1.18453 0.299832 0
-0.197753 -0.00707109 0
-0.2912 0.777509 0
0.271391 0.727854 0
-0.0718505 0.14304 0
0.141637 0.456943 0
0.154654 0.116581 0
0.334083 -0.094324 0
-0.788234 -0.812426 0
-0.628633 -1.01569 0
-0.294089 0.228734 0
-0.24888 -1.34753 0
-0.037716 0.0986208 0
-0.143968 -0.737081 0
0.426108 -0.507392 0
-0.177235 -0.105338 0
0.186227 -0.116425 0
0.600981 -0.517033 0
-1.00816 -0.544566 0
0.89829 0.555827 0
-0.602809 0.566931 0
0.666822 0.15709 0
0.710739 -1.0091 0
0.084611 0.324419 0
-0.964007 0.00269913 0
0.330359 0.0713997 0
-0.896779 0.712228 0
-0.00806491 -0.00202775 0
0.049665 -0.430197 0
-0.066627 0.327812 0
0.2888 -1.92777 0
-0.177902 -0.506567 0
0.128001 -0.379834 0
-0.12015 -0.643736 0
1.08709 0.0481994 0
0.137407 0.285707 0
-0.561033 -1.50849 0
1.16561 -0.669515 0
-0.748477 0.314722 0
-0.263318 0.258877 0
-0.790024 0.152377 0
-0.0730333 0.219369 0
0.401962 -0.654614 0
0.0528013 0.125556 0
0.359275 0.114141 0
-0.496756 -0.0591845 0
-0.201478 -0.810016 0
0.53134 -0.591156 0
0.0691785 -0.0544891 0
-0.273625 0.00208402 0
-0.204232 -0.298179 0
-0.073722 -0.689327 0
0.258002 -0.618797 0
0.354509 -0.207818 0
0.0367766 -0.424544 0
-0.251074 -0.571401 0
0.00328003 -0.175036 0
0.236662 -0.2689 0
-0.02173 -0.563197 0
-0.196333 -0.499052 0
0.0971949 -0.32276 0
0.209153 -0.220603 0
-0.0408005 -0.255592 0
-0.110933 -0.440834 0
0.0562785 -0.421799 0
0.107743 -0.310895 0
0.0287565 -0.306293 0
-0.0534919 -0.275696 0
-0.0586394 -0.257085 0
0.0040217 -0.323194 0
0.0339005 -0.316589 0
-0.0177892 -0.252688 0
-0.0603304 -0.305859 0
-0.0112406 -0.379005 0
0.0344744 -0.346252 0
-0.0093077 -0.29668 0
-0.0655687 -0.285987 0
-0.0468287 -0.278345 0
-0.00411143 -0.300104 0
-0.00829251 -0.362054 0
-0.0291682 -0.389229 0
-0.0191671 -0.324512 0
0.000263419 -0.25684 0
-0.00805331 -0.244709 0
-0.029142 -0.295646 0
-0.0315186 -0.340953 0
-0.0176061 -0.331433 0
-0.010254 -0.300614 0
-0.0154815 -0.280926 0
-0.0236757 -0.280616 0
-0.0271151 -0.2878 0
-0.0268245 -0.29066 0
-0.151334 0.22753 0
-1.06708 0.521851 0
0.0478864 0.21896 0
0.711322 1.18265 0
-0.967595 -1.1406 0
1.2026 0.331447 0
-0.0984994 0.621386 0
-0.458924 -1.0329 0
-0.536895 0.272987 0
-0.300927 0.392636 0
-0.302117 0.492023 0
-0.18443 -0.365281 0
-0.267093 -0.0629726 0
-0.178425 0.0401909 0
0.194696 0.502745 0
0.284601 0.436359 0
-0.0825802 -0.0148807 0
-0.335752 -0.47965 0
0.244425 0.0192188 0
-0.232477 -0.379361 0
0.259406 0.0703023 0
1.1736 -0.846545 0
1.05533 -0.378141 0
-1.00037 -1.4938 0
-0.227845 -0.193174 0
-0.0777174 -0.479863 0
0.0325537 0.339967 0
0.330546 0.0371352 0
0.877284 -0.0895148 0
-0.38 -1.76018 0
-0.213352 -0.16522 0
0.39184 -0.531035 0
0.0839522 -0.0491416 0
-0.0164595 -0.775767 0
0.055295 0.152645 0
0.492062 0.415429 0
-0.0988451 -0.360117 0
-0.922724 -0.285666 0
0.0619072 -0.225911 0
-0.614687 -0.633314 0
0.801874 0.197056 0
-0.173277 0.279335 0
0.232289 0.0638614 0
0.0753725 0.225517 0
-0.871091 -0.532739 0
0.11357 0.0383794 0
0.108473 -0.364429 0
-0.853995 0.108624 0
-0.194921 -0.686618 0
-0.0637408 -1.1536 0
0.0719186 0.311488 0
0.189272 0.163103 0
0.461868 -0.354055 0
-0.264978 -1.06653 0
-0.110794 -0.33519 0
0.213526 -0.0425396 0
-0.0698651 -0.372636 0
-0.0585677 -0.491212 0
0.222975 -0.415324 0
0.00919629 -0.705081 0
-0.118127 -0.487719 0
0.213733 0.050544 0
0.258589 -0.445177 0
-0.0699177 -0.808413 0
-0.143492 -0.231883 0
0.0153536 0.00135988 0
0.0353778 -0.610976 0
-0.0260567 -0.648697 0
0.0363098 -0.134957 0
0.145814 -0.186849 0
0.0457483 -0.448132 0
-0.0983619 -0.409299 0
-0.00618059 -0.332597 0
0.0993801 -0.309382 0
0.0334688 -0.277701 0
-0.0409337 -0.329112 0
-0.0312072 -0.302477 0
-0.00964547 -0.243199 0
0.0063068 -0.278496 0
-0.0099961 -0.325481 0
-0.0395989 -0.329929 0
-0.00755913 -0.369808 0
0.0235198 -0.334346 0
-0.0264654 -0.254369 0
-0.0742962 -0.286528 0
-0.0339452 -0.330272 0
0.0191492 -0.336139 0
-0.00771497 -0.3174 0
-0.0462179 -0.332182 0
-0.0302359 -0.315566 0
-0.00139024 -0.272437 0
0.00161971 -0.276859 0
-0.014566 -0.313217 0
-0.0253738 -0.337488 0
-0.0246537 -0.318073 0
-0.0225666 -0.290551 0
-0.0221098 -0.283257 0
-0.0211149 -0.291391 0
-0.0214196 -0.295448 0
-0.0241217 -0.289915 0
-1.08899 -0.505573 0
-0.0202732 0.459297 0
0.0322647 0.0423406 0
0.751833 -0.268137 0
-0.36826 -0.0797324 0
-0.242744 0.206594 0
-0.503208 -0.318221 0
-0.220256 -0.715805 0
-0.0919089 -0.575651 0
-0.618676 -1.07004 0
0.349766 0.584357 0
0.386137 -0.274703 0
-0.0238644 0.352402 0
0.419492 -0.742942 0
0.114371 -0.122366 0
0.0383778 0.712679 0
0.727025 0.376472 0
1.01773 0.0386173 0
-0.284762 -1.09916 0
-0.455176 -0.103619 0
-0.49105 0.334662 0
0.561492 0.0907389 0
0.110749 -0.914506 0
-1.55945 -0.135261 0
-0.357215 0.391175 0
-0.524114 -0.0834729 0
-0.213454 -1.03557 0
0.957345 -0.447131 0
-0.0428914 -0.405825 0
-0.241438 -0.866797 0
-0.539891 0.689845 0
0.706676 0.0221942 0
0.127696 0.171465 0
0.460149 -0.669755 0