<?xml version='1.0' encoding='UTF-8'?>
<VTKFile byte_order='LittleEndian' version='0.1' type = 'UnstructuredGrid'>
<UnstructuredGrid>
<FieldData>
<DataArray type='Float64' Name='Time' NumberOfComponents='1' NumberOfTuples='1' format='ascii'>
2.441
</DataArray>
</FieldData>
<Piece NumberOfCells='808' NumberOfPoints='808'>
<Points>
<DataArray NumberOfComponents='3' type='Float64' Name='position' format='ascii'>
0 0 0
0 0.025 0
0 0.05 0
0 0.075 0
0 0.1 0
0 0.125 0
0 0.15 0
0 0.175 0
0.025 0 0
0.05 0 0
0.075 0 0
0.1 0 0
0.125 0 0
0.15 0 0
0.175 0 0
0.2 0 0
0.225 0 0
0.25 0 0
0.275 0 0
0.3 0 0
0.323711 -0.00491096 0
0.340772 -0.00809803 0
0.374129 -0.0453049 0
0.400231 -0.0664866 0
0.426399 -0.0854894 0
0.45358 -0.101627 0
0.477546 -0.114781 0
0.502603 -0.131229 0
0.528323 -0.142805 0
0.552065 -0.156368 0
0.577694 -0.171051 0
0.603014 -0.183001 0
0.628256 -0.195762 0
0.65131 -0.207947 0
0.67714 -0.22076 0
0.703031 -0.233009 0
0.725752 -0.245462 0
0.752904 -0.258227 0
0.778237 -0.269184 0
0.800786 -0.28008 0
0.827144 -0.291917 0
0.852702 -0.302939 0
0.876351 -0.31347 0
0.901646 -0.324491 0
0.927423 -0.334848 0
0.952548 -0.34453 0
0.977195 -0.354519 0
1.00172 -0.364176 0
1.02712 -0.373254 0
1.05273 -0.38276 0
1.07717 -0.392542 0
1.10143 -0.401462 0
1.12665 -0.409888 0
1.15194 -0.418633 0
1.17651 -0.427308 0
1.20096 -0.435637 0
1.22588 -0.444022 0
1.25113 -0.452243 0
1.27623 -0.45981 0
1.3009 -0.467022 0
1.3253 -0.474346 0
1.34995 -0.481554 0
1.37516 -0.488248 0
1.40072 -0.494556 0
1.42609 -0.500882 0
1.45103 -0.507255 0
1.47576 -0.513346 0
1.50064 -0.518921 0
1.52576 -0.524061 0
1.55098 -0.528942 0
1.57615 -0.533635 0
1.60126 -0.538152 0
1.62636 -0.542538 0
1.65145 -0.546901 0
1.67649 -0.551319 0
1.70139 -0.555744 0
1.72618 -0.560062 0
1.75089 -0.564184 0
1.77563 -0.56808 0
1.80046 -0.571746 0
1.82542 -0.575166 0
1.85049 -0.578304 0
1.87563 -0.581132 0
1.90081 -0.583646 0
1.92599 -0.585863 0
1.95114 -0.587808 0
1.97627 -0.589496 0
2.00137 -0.590931 0
2.02645 -0.592117 0
2.0515 -0.59306 0
2.07651 -0.59378 0
2.10149 -0.594309 0
2.12644 -0.594681 0
2.15136 -0.594933 0
2.17625 -0.595095 0
2.20112 -0.595193 0
2.22597 -0.595246 0
2.25082 -0.595268 0
2.27568 -0.595269 0
2.30054 -0.595258 0
2.32542 -0.595239 0
2.35032 -0.595217 0
2.37524 -0.595196 0
2.40017 -0.595176 0
2.42512 -0.59516 0
2.45009 -0.595147 0
2.47507 -0.595137 0
2.50006 -0.595132 0
0.0244363 0.0253909 0
0.0495294 0.0228265 0
0.0749771 0.0237303 0
0.100043 0.0240956 0
0.125112 0.0247598 0
0.1494 0.0241623 0
0.17452 0.0252247 0
0.199487 0.0232406 0
0.224012 0.0235328 0
0.246604 0.020734 0
0.27251 0.0196667 0
0.30364 0.0105472 0
0.324479 0.00512513 0
0.350766 -0.00862395 0
0.376199 -0.0264551 0
0.402728 -0.0447986 0
0.427402 -0.0606016 0
0.452184 -0.0745998 0
0.477232 -0.08999 0
0.503523 -0.106347 0
0.528441 -0.11905 0
0.552789 -0.132069 0
0.578201 -0.145381 0
0.602234 -0.158119 0
0.626842 -0.171871 0
0.653111 -0.186012 0
0.678344 -0.19672 0
0.70126 -0.207798 0
0.726055 -0.221297 0
0.752905 -0.23316 0
0.777099 -0.243845 0
0.801072 -0.255926 0
0.827256 -0.267886 0
0.852587 -0.278586 0
0.876973 -0.289415 0
0.901879 -0.300025 0
0.926922 -0.309807 0
0.952078 -0.319606 0
0.977115 -0.329881 0
1.00197 -0.339804 0
1.02731 -0.349019 0
1.05258 -0.358275 0
1.077 -0.367687 0
1.10145 -0.376715 0
1.12664 -0.385362 0
1.15182 -0.393917 0
1.17645 -0.402409 0
1.20104 -0.410895 0
1.22597 -0.419361 0
1.25105 -0.427469 0
1.27604 -0.434995 0
1.3008 -0.442254 0
1.32543 -0.449562 0
1.35016 -0.456739 0
1.37525 -0.463488 0
1.40061 -0.469882 0
1.42593 -0.476187 0
1.45097 -0.482432 0
1.47582 -0.48843 0
1.50073 -0.494019 0
1.5258 -0.499207 0
1.55096 -0.504098 0
1.57612 -0.508766 0
1.60124 -0.513265 0
1.62635 -0.517664 0
1.65143 -0.522032 0
1.67644 -0.526419 0
1.70135 -0.530792 0
1.72615 -0.535066 0
1.75089 -0.539172 0
1.77566 -0.543079 0
1.8005 -0.546767 0
1.82545 -0.550208 0
1.85051 -0.553359 0
1.87564 -0.556193 0
1.90081 -0.558706 0
1.92598 -0.560916 0
1.95113 -0.562849 0
1.97626 -0.564523 0
2.00137 -0.565945 0
2.02644 -0.567117 0
2.05149 -0.568049 0
2.07651 -0.56876 0
2.10149 -0.56928 0
2.12644 -0.569644 0
2.15135 -0.569888 0
2.17624 -0.570045 0
2.20111 -0.570139 0
2.22597 -0.570191 0
2.25082 -0.570214 0
2.27568 -0.570219 0
2.30055 -0.570213 0
2.32543 -0.570201 0
2.35033 -0.570186 0
2.37524 -0.570171 0
2.40018 -0.570158 0
2.42513 -0.570146 0
2.45009 -0.570137 0
2.47507 -0.570131 0
2.50006 -0.570128 0
0.0249526 0.0495274 0
0.0490827 0.0483109 0
0.073573 0.0497056 0
0.0987622 0.0460286 0
0.1237 0.04677 0
0.148506 0.0437547 0
0.174125 0.0441817 0
0.1985 0.0405818 0
0.22547 0.0396426 0
0.248566 0.0351388 0
0.273298 0.0367851 0
0.299992 0.0296154 0
0.326033 0.0171813 0
0.35435 0.00863065 0
0.376044 -0.0064305 0
0.402822 -0.0253139 0
0.427798 -0.0370899 0
0.452001 -0.0532014 0
0.478044 -0.0685522 0
0.503517 -0.0822355 0
0.527324 -0.0950119 0
0.55273 -0.108373 0
0.5787 -0.122201 0
0.603444 -0.133541 0
0.627096 -0.145708 0
0.651744 -0.159709 0
0.677531 -0.172855 0
0.70239 -0.18446 0
0.727199 -0.196424 0
0.752163 -0.207731 0
0.77641 -0.219297 0
0.801585 -0.231969 0
0.827345 -0.243049 0
0.852217 -0.253695 0
0.877021 -0.264813 0
0.902013 -0.275082 0
0.926856 -0.284746 0
0.951941 -0.294822 0
0.977041 -0.305112 0
1.00201 -0.315079 0
1.02734 -0.324522 0
1.05251 -0.333532 0
1.07694 -0.342686 0
1.10147 -0.351901 0
1.12664 -0.360629 0
1.15174 -0.368955 0
1.17641 -0.377371 0
1.20107 -0.385934 0
1.226 -0.394425 0
1.251 -0.402538 0
1.27592 -0.410123 0
1.30075 -0.417408 0
1.32552 -0.424661 0
1.35033 -0.431788 0
1.37534 -0.438589 0
1.40055 -0.445079 0
1.4258 -0.451403 0
1.45091 -0.457573 0
1.47586 -0.46347 0
1.5008 -0.469026 0
1.52584 -0.474256 0
1.55096 -0.479176 0
1.5761 -0.483834 0
1.60123 -0.488326 0
1.62634 -0.492734 0
1.65141 -0.497105 0
1.67641 -0.50147 0
1.70131 -0.505805 0
1.72613 -0.510048 0
1.75089 -0.514144 0
1.77568 -0.518059 0
1.80052 -0.521767 0
1.82547 -0.525227 0
1.85052 -0.528395 0
1.87565 -0.531239 0
1.90081 -0.533755 0
1.92598 -0.535963 0
1.95113 -0.537888 0
1.97626 -0.539551 0
2.00137 -0.54096 0
2.02644 -0.542121 0
2.05149 -0.543043 0
2.0765 -0.543744 0
2.10149 -0.544255 0
2.12644 -0.544611 0
2.15135 -0.544848 0
2.17624 -0.544999 0
2.20111 -0.54509 0
2.22597 -0.54514 0
2.25082 -0.545165 0
2.27568 -0.545173 0
2.30055 -0.545172 0
2.32543 -0.545166 0
2.35033 -0.545158 0
2.37525 -0.545149 0
2.40018 -0.545141 0
2.42513 -0.545134 0
2.4501 -0.545129 0
2.47507 -0.545125 0
2.50006 -0.545123 0
0.0248037 0.0732231 0
0.0496097 0.0727994 0
0.0743376 0.071913 0
0.0984827 0.0691217 0
0.123799 0.0697582 0
0.149161 0.0660265 0
0.173753 0.0673282 0
0.198578 0.0623384 0
0.224718 0.0628684 0
0.248281 0.057407 0
0.274814 0.0541451 0
0.301548 0.0493799 0
0.325207 0.0385878 0
0.353315 0.0290838 0
0.378226 0.0110071 0
0.402721 -0.000745583 0
0.429076 -0.0153393 0
0.452818 -0.0313668 0
0.478585 -0.045144 0
0.503888 -0.0556833 0
0.527293 -0.0710567 0
0.553136 -0.0845414 0
0.577896 -0.0949689 0
0.601963 -0.110343 0
0.627754 -0.122835 0
0.652598 -0.134178 0
0.676973 -0.147367 0
0.702353 -0.159533 0
0.727683 -0.171791 0
0.752185 -0.183617 0
0.776641 -0.195268 0
0.801894 -0.207048 0
0.827148 -0.218017 0
0.851893 -0.228821 0
0.876815 -0.23962 0
0.901921 -0.2501 0
0.927012 -0.260241 0
0.952107 -0.270128 0
0.977006 -0.280218 0
1.0019 -0.290222 0
1.02717 -0.299699 0
1.05238 -0.308715 0
1.07702 -0.317828 0
1.10162 -0.327033 0
1.12664 -0.33578 0
1.15164 -0.344038 0
1.17634 -0.35234 0
1.20106 -0.360889 0
1.226 -0.369406 0
1.25097 -0.37757 0
1.27586 -0.385242 0
1.30071 -0.392573 0
1.32557 -0.399767 0
1.35046 -0.40683 0
1.37544 -0.413663 0
1.40054 -0.42025 0
1.42572 -0.426615 0
1.45086 -0.432723 0
1.47588 -0.438533 0
1.50086 -0.444047 0
1.52587 -0.449281 0
1.55095 -0.454218 0
1.57608 -0.45888 0
1.60122 -0.463374 0
1.62633 -0.467787 0
1.6514 -0.472155 0
1.67639 -0.476503 0
1.70129 -0.480813 0
1.72611 -0.485034 0
1.75089 -0.489122 0
1.77568 -0.493044 0
1.80054 -0.496769 0
1.82549 -0.500249 0
1.85053 -0.503435 0
1.87565 -0.506292 0
1.90081 -0.508814 0
1.92598 -0.51102 0
1.95113 -0.512938 0
1.97626 -0.51459 0
2.00136 -0.515987 0
2.02644 -0.517135 0
2.05149 -0.518045 0
2.07651 -0.518736 0
2.10149 -0.519237 0
2.12644 -0.519583 0
2.15136 -0.519811 0
2.17625 -0.519955 0
2.20112 -0.520041 0
2.22597 -0.520089 0
2.25083 -0.520115 0
2.27568 -0.520127 0
2.30055 -0.520131 0
2.32543 -0.520131 0
2.35033 -0.520129 0
2.37525 -0.520127 0
2.40018 -0.520124 0
2.42513 -0.520122 0
2.4501 -0.52012 0
2.47507 -0.520119 0
2.50006 -0.520119 0
0.0246684 0.0987496 0
0.0498594 0.0976923 0
0.0736805 0.0967773 0
0.0981419 0.0953517 0
0.124208 0.0957676 0
0.149009 0.0910503 0
0.173391 0.0919065 0
0.199281 0.0875263 0
0.225041 0.0859969 0
0.250172 0.0812587 0
0.275296 0.0742329 0
0.301367 0.0689187 0
0.327989 0.0580201 0
0.35392 0.0494503 0
0.3791 0.0328503 0
0.403486 0.0228314 0
0.428938 0.0064718 0
0.452508 -0.00579722 0
0.478317 -0.0180741 0
0.503663 -0.0312782 0
0.527482 -0.0449593 0
0.553026 -0.0597335 0
0.57829 -0.0718997 0
0.602294 -0.0861251 0
0.627826 -0.0993218 0
0.65347 -0.110269 0
0.677172 -0.121573 0
0.701328 -0.13402 0
0.727076 -0.147639 0
0.752543 -0.159611 0
0.777206 -0.170479 0
0.802021 -0.181895 0
0.826994 -0.193105 0
0.851836 -0.203831 0
0.876781 -0.214699 0
0.901841 -0.225479 0
0.92698 -0.235762 0
0.952146 -0.245507 0
0.977033 -0.255205 0
1.0018 -0.265174 0
1.02695 -0.274843 0
1.05224 -0.283956 0
1.07714 -0.292938 0
1.10183 -0.302137 0
1.12666 -0.310943 0
1.15151 -0.319162 0
1.17624 -0.3274 0
1.20104 -0.33587 0
1.22598 -0.344341 0
1.25093 -0.352576 0
1.2758 -0.360369 0
1.30066 -0.36774 0
1.32559 -0.374897 0
1.35055 -0.381925 0
1.37553 -0.388777 0
1.40057 -0.395411 0
1.42568 -0.401804 0
1.45081 -0.407889 0
1.47588 -0.413636 0
1.50088 -0.41909 0
1.52588 -0.424303 0
1.55095 -0.429252 0
1.57607 -0.433929 0
1.60122 -0.43843 0
1.62634 -0.442841 0
1.65139 -0.447201 0
1.67637 -0.451535 0
1.70127 -0.455828 0
1.7261 -0.460034 0
1.75089 -0.464114 0
1.77568 -0.468041 0
1.80054 -0.471781 0
1.82549 -0.475282 0
1.85053 -0.478488 0
1.87565 -0.481358 0
1.90081 -0.483886 0
1.92598 -0.48609 0
1.95113 -0.488 0
1.97626 -0.48964 0
2.00137 -0.491024 0
2.02644 -0.49216 0
2.05149 -0.493058 0
2.07651 -0.493736 0
2.10149 -0.494225 0
2.12644 -0.494559 0
2.15136 -0.494777 0
2.17625 -0.494912 0
2.20112 -0.494993 0
2.22597 -0.495039 0
2.25083 -0.495065 0
2.27568 -0.49508 0
2.30055 -0.495089 0
2.32543 -0.495096 0
2.35033 -0.495101 0
2.37525 -0.495104 0
2.40018 -0.495107 0
2.42513 -0.49511 0
2.4501 -0.495112 0
2.47507 -0.495113 0
2.50006 -0.495113 0
0.0243969 0.125215 0
0.0493883 0.124252 0
0.0732364 0.124439 0
0.0992768 0.122586 0
0.123885 0.124301 0
0.148333 0.121336 0
0.173653 0.120397 0
0.199252 0.117099 0
0.2253 0.111166 0
0.251026 0.105415 0
0.275588 0.100331 0
0.301654 0.092226 0
0.327917 0.081518 0
0.353412 0.0707917 0
0.378485 0.0576125 0
0.403309 0.0464327 0
0.428791 0.0326451 0
0.453133 0.0192024 0
0.478576 0.0063006 0
0.503029 -0.00955793 0
0.527686 -0.0207727 0
0.553349 -0.0371675 0
0.578221 -0.0470417 0
0.602923 -0.058638 0
0.627488 -0.0744351 0
0.652873 -0.0861573 0
0.677356 -0.0976005 0
0.701693 -0.110664 0
0.727146 -0.122778 0
0.752272 -0.133793 0
0.776896 -0.145233 0
0.801932 -0.157276 0
0.827153 -0.168589 0
0.852129 -0.179107 0
0.87694 -0.189811 0
0.901753 -0.200986 0
0.926769 -0.21132 0
0.951985 -0.220555 0
0.977025 -0.230231 0
1.00183 -0.240303 0
1.02685 -0.250026 0
1.05214 -0.259123 0
1.07723 -0.267974 0
1.10195 -0.277174 0
1.12664 -0.286128 0
1.15142 -0.294411 0
1.1762 -0.302526 0
1.20103 -0.310828 0
1.22596 -0.319279 0
1.25088 -0.327581 0
1.27573 -0.335453 0
1.30062 -0.342899 0
1.3256 -0.350076 0
1.35061 -0.357074 0
1.3756 -0.363909 0
1.40062 -0.370559 0
1.42569 -0.376967 0
1.45079 -0.383048 0
1.47585 -0.388754 0
1.50086 -0.394144 0
1.52586 -0.399328 0
1.55093 -0.404292 0
1.57607 -0.408988 0
1.60123 -0.413495 0
1.62635 -0.417896 0
1.65139 -0.422243 0
1.67637 -0.426567 0
1.70126 -0.430847 0
1.72609 -0.435039 0
1.75088 -0.439111 0
1.77567 -0.443043 0
1.80053 -0.446801 0
1.82548 -0.450327 0
1.85053 -0.453555 0
1.87565 -0.45644 0
1.90081 -0.458971 0
1.92598 -0.46117 0
1.95113 -0.463071 0
1.97626 -0.4647 0
2.00137 -0.466073 0
2.02645 -0.467196 0
2.0515 -0.46808 0
2.07652 -0.468745 0
2.1015 -0.469219 0
2.12645 -0.469541 0
2.15137 -0.469747 0
2.17625 -0.469872 0
2.20112 -0.469946 0
2.22598 -0.469989 0
2.25083 -0.470016 0
2.27568 -0.470034 0
2.30055 -0.470048 0
2.32543 -0.470061 0
2.35033 -0.470072 0
2.37525 -0.470082 0
2.40018 -0.470091 0
2.42513 -0.470098 0
2.4501 -0.470103 0
2.47507 -0.470107 0
2.50006 -0.470109 0
0.0249549 0.147513 0
0.0502398 0.145562 0
0.0750994 0.142861 0
0.0993547 0.141558 0
0.124199 0.13886 0
0.149713 0.137141 0
0.174895 0.132338 0
0.198221 0.131491 0
0.224788 0.129921 0
0.249907 0.12437 0
0.276602 0.118417 0
0.301798 0.109468 0
0.326617 0.103055 0
0.352339 0.0894685 0
0.377158 0.0822959 0
0.403312 0.0667178 0
0.427849 0.0580214 0
0.454215 0.0417091 0
0.478372 0.0297406 0
0.503729 0.0156302 0
0.528225 0.00336265 0
0.552602 -0.00730598 0
0.5775 -0.0230478 0
0.602827 -0.0369037 0
0.627334 -0.0480406 0
0.652238 -0.0610131 0
0.677679 -0.0740928 0
0.702541 -0.0862252 0
0.727177 -0.0980335 0
0.75197 -0.108693 0
0.776859 -0.120031 0
0.801821 -0.132726 0
0.826963 -0.144306 0
0.852196 -0.154606 0
0.877141 -0.165201 0
0.901722 -0.176324 0
0.926559 -0.18654 0
0.951852 -0.195749 0
0.977025 -0.205449 0
1.00189 -0.215732 0
1.02687 -0.225244 0
1.05211 -0.234172 0
1.07722 -0.243085 0
1.10197 -0.252244 0
1.12662 -0.261305 0
1.15138 -0.269777 0
1.17618 -0.277759 0
1.20103 -0.28583 0
1.22592 -0.294246 0
1.25078 -0.302622 0
1.27565 -0.310563 0
1.3006 -0.318087 0
1.32562 -0.325321 0
1.35064 -0.33229 0
1.37564 -0.339052 0
1.40065 -0.345697 0
1.42572 -0.35215 0
1.45079 -0.358222 0
1.47583 -0.363869 0
1.50082 -0.369221 0
1.52582 -0.374389 0
1.55091 -0.379354 0
1.57607 -0.384076 0
1.60125 -0.388591 0
1.62636 -0.39297 0
1.6514 -0.3973 0
1.67637 -0.401614 0
1.70126 -0.405882 0
1.72609 -0.410057 0
1.75087 -0.414118 0
1.77566 -0.418056 0
1.8005 -0.421838 0
1.82546 -0.425395 0
1.85051 -0.428648 0
1.87565 -0.431544 0
1.90081 -0.434074 0
1.92598 -0.436265 0
1.95113 -0.438154 0
1.97626 -0.439771 0
2.00137 -0.441132 0
2.02645 -0.442242 0
2.05151 -0.443113 0
2.07653 -0.443762 0
2.10151 -0.444221 0
2.12646 -0.444527 0
2.15137 -0.444719 0
2.17626 -0.444834 0
2.20113 -0.444901 0
2.22598 -0.444941 0
2.25083 -0.444967 0
2.27568 -0.444988 0
2.30055 -0.445007 0
2.32543 -0.445026 0
2.35033 -0.445044 0
2.37524 -0.44506 0
2.40018 -0.445074 0
2.42513 -0.445085 0
2.45009 -0.445095 0
2.47507 -0.445101 0
2.50006 -0.445104 0
0.0247976 0.172893 0
0.0491182 0.172232 0
0.074878 0.171068 0
0.0993188 0.169677 0
0.124651 0.16755 0
0.148276 0.166003 0
0.174592 0.165031 0
0.200977 0.159724 0
0.224021 0.155966 0
0.251435 0.150598 0
0.274486 0.144589 0
0.301861 0.137099 0
0.327824 0.127569 0
0.351958 0.117687 0
0.379638 0.105219 0
0.403362 0.0935043 0
0.427834 0.0785913 0
0.453884 0.0680452 0
0.477636 0.0532695 0
0.502336 0.0402328 0
0.528695 0.027803 0
0.552622 0.0131835 0
0.577612 0.000343575 0
0.603372 -0.0107932 0
0.627627 -0.0243009 0
0.651992 -0.0376951 0
0.677707 -0.0485629 0
0.702512 -0.0604907 0
0.726489 -0.0732699 0
0.75197 -0.0850279 0
0.777727 -0.0964277 0
0.80201 -0.108345 0
0.826333 -0.119657 0
0.851852 -0.130168 0
0.87716 -0.141026 0
0.901682 -0.151808 0
0.926521 -0.161709 0
0.951868 -0.171277 0
0.977046 -0.181205 0
1.0019 -0.191246 0
1.02686 -0.200704 0
1.0521 -0.209486 0
1.07718 -0.2183 0
1.10192 -0.227526 0
1.12663 -0.236785 0
1.15137 -0.245286 0
1.17616 -0.253078 0
1.20102 -0.261032 0
1.22588 -0.269437 0
1.25069 -0.277831 0
1.27558 -0.285866 0
1.30059 -0.293494 0
1.32563 -0.300703 0
1.35064 -0.307572 0
1.37564 -0.314301 0
1.40066 -0.320975 0
1.42574 -0.327439 0
1.45081 -0.33348 0
1.47581 -0.339073 0
1.50077 -0.344376 0
1.52577 -0.349535 0
1.55088 -0.354526 0
1.57608 -0.359267 0
1.60127 -0.363759 0
1.62639 -0.368099 0
1.65142 -0.372405 0
1.67638 -0.376709 0
1.70128 -0.38096 0
1.7261 -0.38511 0
1.75087 -0.389154 0
1.77563 -0.393097 0
1.80047 -0.396907 0
1.82542 -0.400501 0
1.85049 -0.403781 0
1.87564 -0.406685 0
1.90081 -0.409207 0
1.92599 -0.411381 0
1.95114 -0.413253 0
1.97627 -0.414856 0
2.00137 -0.416203 0
2.02646 -0.4173 0
2.05151 -0.418155 0
2.07654 -0.418787 0
2.10152 -0.419227 0
2.12647 -0.419515 0
2.15138 -0.419692 0
2.17627 -0.419794 0
2.20113 -0.419853 0
2.22598 -0.419889 0
2.25083 -0.419915 0
2.27568 -0.419939 0
2.30055 -0.419963 0
2.32542 -0.419988 0
2.35032 -0.420012 0
2.37524 -0.420035 0
2.40017 -0.420055 0
2.42512 -0.420072 0
2.45009 -0.420085 0
2.47507 -0.420095 0
2.50006 -0.4201 0
</DataArray>
</Points>
<PointData>
<DataArray NumberOfComponents='1' type='Int32' Name='Particle Type' format='ascii'>
0
0
0
0
0
0
0
0
0
0
0
0
0
0
0
0
0
0
0
0
0
0
1
1
1
1
1
1
1
1
1
1
1
1
1
1
1
1
1
1
1
1
1
1
1
1
1
1
1
1
1
1
1
1
1
1
1
1
1
1
1
1
1
1
1
1
1
1
1
1
1
1
1
1
1
1
1
1
1
1
1
1
1
1
1
1
1
1
1
1
1
1
1
1
1
1
1
1
1
1
1
1
1
1
1
1
1
1
1
1
1
1
1
1
1
1
1
1
1
1
1
1
1
1
1
1
1
1
1
1
1
1
1
1
1
1
1
1
1
1
1
1
1
1
1
1
1
1
1
1
1
1
1
1
1
1
1
1
1
1
1
1
1
1
1
1
1
1
1
1
1
1
1
1
1
1
1
1
1
1
1
1
1
1
1
1
1
1
1
1
1
1
1
1
1
1
1
1
1
1
1
1
1
1
1
1
1
1
1
1
1
1
1
1
1
1
1
1
1
1
1
1
1
1
1
1
1
1
1
1
1
1
1
1
1
1
1
1
1
1
1
1
1
1
1
1
1
1
1
1
1
1
1
1
1
1
1
1
1
1
1
1
1
1
1
1
1
1
1
1
1
1
1
1
1
1
1
1
1
1
1
1
1
1
1
1
1
1
1
1
1
1
1
1
1
1
1
1
1
1
1
1
1
1
1
1
1
1
1
1
1
1
1
1
1
1
1
1
1
1
1
1
1
1
1
1
1
1
1
1
1
1
1
1
1
1
1
1
1
1
1
1
1
1
1
1
1
1
1
1
1
1
1
1
1
1
1
1
1
1
1
1
1
1
1
1
1
1
1
1
1
1
1
1
1
1
1
1
1
1
1
1
1
1
1
1
1
1
1
1
1
1
1
1
1
1
1
1
1
1
1
1
1
1
1
1
1
1
1
1
1
1
1
1
1
1
1
1
1
1
1
1
1
1
1
1
1
1
1
1
1
1
1
1
1
1
1
1
1
1
1
1
1
1
1
1
1
1
1
1
1
1
1
1
1
1
1
1
1
1
1
1
1
1
1
1
1
1
1
1
1
1
1
1
1
1
1
1
1
1
1
1
1
1
1
1
1
1
1
1
1
1
1
1
1
1
1
1
1
1
1
1
1
1
1
1
1
1
1
1
1
1
1
1
1
1
1
1
1
1
1
1
1
1
1
1
1
1
1
1
1
1
1
1
1
1
1
1
1
1
1
1
1
1
1
1
1
1
1
1
1
1
1
1
1
1
1
1
1
1
1
1
1
1
1
1
1
1
1
1
1
1
1
1
1
1
1
1
1
1
1
1
1
1
1
1
1
1
1
1
1
1
1
1
1
1
1
1
1
1
1
1
1
1
1
1
1
1
1
1
1
1
1
1
1
1
1
1
1
1
1
1
1
1
1
1
1
1
1
1
1
1
1
1
1
1
1
1
1
1
1
1
1
1
1
1
1
1
1
1
1
1
1
1
1
1
1
1
1
1
1
1
1
1
1
1
1
1
1
1
1
1
1
1
1
1
1
1
1
1
1
1
1
1
1
1
1
1
1
1
1
1
1
1
1
1
1
1
1
1
1
1
1
1
1
1
1
1
1
1
1
1
1
1
1
1
1
1
1
1
1
1
1
1
1
1
1
1
1
1
1
1
1
1
1
1
1
1
1
1
1
1
1
1
1
1
1
1
1
1
1
1
1
1
1
1
1
1
1
1
1
1
1
1
1
1
1
1
1
1
1
1
1
1
1
1
1
1
1
1
1
1
1
1
1
1
1
1
1
1
1
1
1
1
1
1
1
1
1
1
1
1
1
1
1
1
1
1
</DataArray>
<DataArray NumberOfComponents='3' type='Float64' Name='Velocity' format='ascii'>
0 0 0
0 0 0
0 0 0
0 0 0
0 0 0
0 0 0
0 0 0
0 0 0
0 0 0
0 0 0
0 0 0
0 0 0
0 0 0
0 0 0
0 0 0
0 0 0
0 0 0
0 0 0
0 0 0
0 0 0
-0.0107857 -0.0842871 0
-0.0273274 -0.0472169 0
0.0450348 -0.05876 0
0.00789304 0.00185758 0
-0.0529553 0.0289931 0
-0.0174394 -0.0825298 0
0.0406783 -0.0423536 0
-0.0284646 -0.0619071 0
0.0210282 -0.138292 0
0.00319449 -0.0194204 0
-0.0296125 -0.0935169 0
-0.020644 -0.113721 0
0.0258743 -0.113583 0
0.0325828 -0.101891 0
-0.0682886 -0.0832063 0
0.0289451 -0.099627 0
-0.00211793 -0.079219 0
-0.0759029 -0.115646 0
0.0529706 -0.157783 0
0.0150406 -0.132729 0
-0.0511262 -0.129334 0
0.0208477 -0.155831 0
0.0120194 -0.146032 0
-0.034399 -0.144438 0
-0.0226741 -0.175801 0
-0.00108226 -0.184082 0
0.0125205 -0.182617 0
-0.00117427 -0.200609 0
-0.0255624 -0.200532 0
-0.00644389 -0.182958 0
0.0204916 -0.19328 0
0.00336812 -0.21928 0
-0.0151726 -0.219324 0
-0.000666636 -0.213449 0
0.0144106 -0.223729 0
0.00683554 -0.229085 0
-0.00786943 -0.22879 0
-0.0106022 -0.243739 0
0.00158482 -0.261682 0
0.0154645 -0.263242 0
0.0149823 -0.260502 0
-0.00132866 -0.271125 0
-0.0180753 -0.287231 0
-0.019675 -0.292804 0
-0.00714974 -0.289813 0
0.00474441 -0.292321 0
0.00523849 -0.304951 0
-0.00239013 -0.320422 0
-0.00849575 -0.33122 0
-0.0088318 -0.337931 0
-0.00640584 -0.343618 0
-0.00504478 -0.348431 0
-0.00479651 -0.351297 0
-0.00348439 -0.350681 0
1.60254e-05 -0.34954 0
0.00460943 -0.351173 0
0.00812883 -0.356157 0
0.00897434 -0.362916 0
0.00693567 -0.370017 0
0.00303176 -0.377354 0
-0.00121011 -0.385545 0
-0.00452216 -0.39482 0
-0.00632766 -0.404644 0
-0.00672765 -0.414207 0
-0.00619963 -0.42305 0
-0.00525572 -0.431246 0
-0.00422922 -0.439139 0
-0.00323302 -0.446968 0
-0.00223497 -0.454677 0
-0.00116626 -0.461964 0
2.91818e-07 -0.468464 0
0.00122754 -0.473914 0
0.00243102 -0.478237 0
0.00350991 -0.481514 0
0.00437459 -0.483918 0
0.00496373 -0.485644 0
0.00525152 -0.48686 0
0.00524733 -0.487695 0
0.0049902 -0.488243 0
0.00453994 -0.488568 0
0.00396657 -0.488726 0
0.00333994 -0.488761 0
0.00272146 -0.488713 0
0.00215901 -0.488616 0
0.00168542 -0.488499 0
0.00131993 -0.488384 0
0.00107047 -0.488288 0
0.000931988 -0.488229 0
0.0211656 -0.0378291 0
0.00165995 -0.0159732 0
-0.0286213 -0.0319334 0
-0.00964466 0.00646903 0
0.005194 -0.115476 0
-0.0160695 -0.0628354 0
-0.019583 -0.12328 0
0.0413576 -0.0418064 0
-0.0400101 -0.11122 0
0.0345407 0.0494492 0
0.107064 -0.0370837 0
-0.18048 -0.00540512 0
0.00125412 -0.0456927 0
0.00121261 -0.0240411 0
-0.0730617 -0.0543386 0
0.0161508 -0.120189 0
0.0290375 -0.12722 0
0.0175225 -0.112103 0
-0.0304993 0.0189744 0
-0.0392654 -0.0440321 0
0.0222262 -0.0992922 0
0.00055306 -0.0787915 0
0.0120711 -0.0705736 0
0.0292696 -0.0588138 0
-0.0379321 -0.0161507 0
-0.0470537 -0.104272 0
0.0485066 -0.18917 0
0.0571292 -0.101018 0
-0.0544014 -0.0814075 0
-0.0326885 -0.147602 0
0.0402472 -0.132692 0
-0.0178523 -0.0955585 0
-0.044076 -0.130346 0
0.00302681 -0.152919 0
0.00761902 -0.150298 0
-0.00320771 -0.17387 0
-0.00691814 -0.187372 0
-0.0116023 -0.173155 0
-0.00403288 -0.167755 0
-0.00858016 -0.190451 0
-0.0175735 -0.20214 0
0.00255237 -0.196203 0
0.0188594 -0.200082 0
0.000645052 -0.213219 0
-0.0135697 -0.219064 0
-0.000456635 -0.221725 0
0.0106484 -0.223412 0
0.00386761 -0.223412 0
-0.00486597 -0.229563 0
-0.00482825 -0.2467 0
0.00160844 -0.260788 0
0.00857356 -0.262161 0
0.00915424 -0.261656 0
0.000310886 -0.271127 0
-0.0114401 -0.284643 0
-0.0152319 -0.291277 0
-0.00848344 -0.292333 0
0.000333513 -0.296337 0
0.00246814 -0.306263 0
-0.00184833 -0.319282 0
-0.00643698 -0.330313 0
-0.00754977 -0.33841 0
-0.00641713 -0.344641 0
-0.00539543 -0.3487 0
-0.00463202 -0.350962 0
-0.0028807 -0.351122 0
0.000400322 -0.350983 0
0.00431715 -0.352834 0
0.00725895 -0.357132 0
0.00799182 -0.362909 0
0.00629389 -0.369359 0
0.00291612 -0.376555 0
-0.000907841 -0.384934 0
-0.00405244 -0.39449 0
-0.00591029 -0.404575 0
-0.00647093 -0.41436 0
-0.00610576 -0.423381 0
-0.00526445 -0.431694 0
-0.00426924 -0.439631 0
-0.00325841 -0.447444 0
-0.00223436 -0.455106 0
-0.0011512 -0.462344 0
1.20867e-05 -0.468808 0
0.00122328 -0.474235 0
0.00240612 -0.478531 0
0.00346648 -0.481764 0
0.0043184 -0.484102 0
0.00490187 -0.485741 0
0.005191 -0.486862 0
0.00519426 -0.487607 0
0.00494917 -0.48808 0
0.00451362 -0.488356 0
0.00395549 -0.48849 0
0.00334279 -0.488525 0
0.00273564 -0.488496 0
0.00218142 -0.488431 0
0.00171313 -0.488351 0
0.0013507 -0.488273 0
0.00110277 -0.488212 0
0.000963193 -0.488177 0
-0.0348973 0.0634503 0
0.0211116 0.0876272 0
0.0397627 0.0384217 0
0.0159534 0.10195 0
0.0236323 0.146956 0
-0.0267542 0.249408 0
-0.00366241 0.16201 0
0.0317882 0.283825 0
-0.0524934 0.0920521 0
-0.0635387 0.132194 0
0.129923 -0.0618449 0
0.00246018 0.201626 0
-0.0744482 0.12686 0
0.190778 -0.149049 0
-0.0314644 0.163577 0
-0.0344006 -0.0156929 0
0.022248 -0.0886658 0
-0.00880203 0.0578195 0
-0.0476291 -0.051596 0
0.0137699 -0.0683143 0
0.00448342 -0.10817 0
-0.0472488 -0.0511396 0
-0.0290683 -0.120649 0
0.0347776 -0.158796 0
0.0437917 -0.0748342 0
-0.0199558 -0.0347496 0
-0.0272582 -0.097594 0
0.00381667 -0.129933 0
-0.00114336 -0.131459 0
0.0143068 -0.141271 0
0.00614203 -0.0922872 0
-0.0334933 -0.106896 0
-0.0204023 -0.156332 0
0.00111127 -0.144268 0
-0.00409631 -0.154616 0
-4.60992e-06 -0.186604 0
-0.00160806 -0.182429 0
-0.0110281 -0.164065 0
-0.00769506 -0.167133 0
-0.0111794 -0.182123 0
-0.0158139 -0.201841 0
0.00497902 -0.208205 0
0.0181183 -0.200937 0
-0.000249133 -0.2076 0
-0.0121743 -0.224514 0
2.17851e-05 -0.228295 0
0.00853142 -0.222213 0
0.00231643 -0.220822 0
-0.00354811 -0.228717 0
-0.00226948 -0.244753 0
0.00147846 -0.25899 0
0.00437314 -0.262777 0
0.00486804 -0.264027 0
0.000772494 -0.270953 0
-0.00660583 -0.281722 0
-0.0111945 -0.288977 0
-0.00897971 -0.293073 0
-0.00313302 -0.299507 0
-1.67318e-05 -0.308962 0
-0.001642 -0.319252 0
-0.00477191 -0.329096 0
-0.00627993 -0.338662 0
-0.00620934 -0.345227 0
-0.00561545 -0.348755 0
-0.00453556 -0.350722 0
-0.00243796 -0.351416 0
0.000702569 -0.351948 0
0.00410247 -0.353929 0
0.00658487 -0.357755 0
0.00721999 -0.362867 0
0.0057783 -0.36885 0
0.0027966 -0.375895 0
-0.000711275 -0.384343 0
-0.00372109 -0.394063 0
-0.00560509 -0.404345 0
-0.0062746 -0.414343 0
-0.00602599 -0.423565 0
-0.00526484 -0.432031 0
-0.00430268 -0.440049 0
-0.00329025 -0.447876 0
-0.00225077 -0.455509 0
-0.00115452 -0.462709 0
1.32576e-05 -0.469143 0
0.00122133 -0.474547 0
0.00239714 -0.478818 0
0.0034499 -0.48201 0
0.00429569 -0.484283 0
0.00487552 -0.485838 0
0.00516395 -0.486866 0
0.00516952 -0.487524 0
0.00492945 -0.487926 0
0.00450085 -0.488155 0
0.00395058 -0.488268 0
0.00334553 -0.488304 0
0.00274498 -0.488294 0
0.00219585 -0.488258 0
0.00173105 -0.488211 0
0.00137066 -0.488166 0
0.00112321 -0.488132 0
0.000981535 -0.488112 0
-0.011397 -0.0252856 0
0.0395983 -0.0556461 0
-0.0114645 -0.101074 0
-0.0586869 -0.0972491 0
-0.00785443 -0.0754831 0
-0.00584066 -0.212567 0
-0.0251171 -0.0972381 0
0.036674 -0.11315 0
0.0371106 -0.244144 0
-0.0740337 0.100314 0
-0.00100163 -0.259557 0
0.0716314 -0.0899783 0
-0.153599 -0.085332 0
0.0165478 0.0346954 0
-4.71203e-05 0.00398747 0
-0.0468154 -0.0749834 0
-0.0151574 0.0464983 0
0.0173107 -0.0159226 0
-0.0468353 -0.129043 0
0.0412497 -0.125658 0
0.0124929 0.00555716 0
-0.0199385 -0.184267 0
0.0346375 -0.0797391 0
-0.0127372 -0.0292664 0
-0.0275101 -0.150593 0
0.0110818 -0.0959703 0
-0.0115212 -0.0807302 0
-0.0298476 -0.107144 0
0.000203206 -0.105979 0
0.0208948 -0.121948 0
0.000178841 -0.116926 0
-0.0180435 -0.136358 0
-0.00331665 -0.154479 0
0.00120886 -0.152449 0
-0.00927068 -0.158582 0
-0.0104588 -0.166261 0
-0.00945785 -0.175121 0
-0.00518893 -0.173817 0
-8.20047e-05 -0.169314 0
-0.00802939 -0.182058 0
-0.0152199 -0.201152 0
-0.0012785 -0.207426 0
0.0115381 -0.201981 0
0.00180365 -0.208478 0
-0.0064368 -0.226041 0
0.00144115 -0.232367 0
0.00668467 -0.224589 0
0.0010112 -0.219683 0
-0.00357691 -0.226634 0
-0.00156513 -0.241603 0
0.00159991 -0.255907 0
0.00224147 -0.263184 0
0.00153376 -0.266592 0
-0.000189437 -0.27195 0
-0.00381296 -0.279 0
-0.00765327 -0.286052 0
-0.00828969 -0.293398 0
-0.00526022 -0.302375 0
-0.0020673 -0.311424 0
-0.00169362 -0.320206 0
-0.003533 -0.329096 0
-0.00533563 -0.338556 0
-0.00608076 -0.345413 0
-0.00578461 -0.348743 0
-0.0044437 -0.350664 0
-0.00208497 -0.351684 0
0.000951341 -0.352572 0
0.00397018 -0.354603 0
0.00611549 -0.358137 0
0.00668033 -0.36282 0
0.00541464 -0.36845 0
0.00269113 -0.375315 0
-0.000617735 -0.38375 0
-0.00353904 -0.393578 0
-0.00542823 -0.404047 0
-0.00615198 -0.414268 0
-0.00596628 -0.423707 0
-0.00525617 -0.432343 0
-0.00432682 -0.44046 0
-0.00332767 -0.448319 0
-0.00228624 -0.455943 0
-0.00118039 -0.463119 0
-1.17705e-06 -0.469531 0
0.00121662 -0.474914 0
0.00239878 -0.479155 0
0.00345421 -0.482297 0
0.0042997 -0.484496 0
0.00487746 -0.485957 0
0.00516342 -0.486884 0
0.00516724 -0.487447 0
0.00492677 -0.487774 0
0.00449918 -0.487953 0
0.00395098 -0.488043 0
0.00334851 -0.488081 0
0.00275051 -0.488089 0
0.00220351 -0.488082 0
0.00174027 -0.488069 0
0.00138074 -0.488055 0
0.00113332 -0.488044 0
0.000990552 -0.488038 0
0.0328901 -0.0311312 0
0.00815864 -0.00573203 0
-0.0481787 0.0173888 0
0.014725 0.0114835 0
0.0536516 -0.0569083 0
0.036211 -0.102913 0
0.0289415 -0.0956173 0
-0.0229703 -0.0922607 0
-0.00755361 -0.156371 0
-0.0572016 0.0644942 0
-0.0219936 0.0531968 0
0.104425 -0.0485671 0
-0.0895801 -0.0580636 0
0.0112938 0.00146326 0
0.0103117 -0.0414632 0
-0.010662 -0.0803681 0
0.0194673 -0.0111058 0
0.0073968 -0.163706 0
-0.0438589 -0.0988248 0
0.00947189 -0.0696225 0
0.00564447 -0.0144344 0
-0.0387727 -0.0372944 0
0.0105346 -0.0613752 0
-0.000254391 -0.0275116 0
-0.0423892 -0.138539 0
0.0123324 -0.164566 0
0.0481284 -0.132286 0
-0.00744373 -0.0613989 0
-0.03974 -0.0655655 0
-0.0123736 -0.137695 0
0.00470374 -0.150781 0
3.3746e-05 -0.140033 0
0.00137523 -0.151446 0
-0.000621778 -0.15216 0
-0.00796098 -0.146961 0
-0.0106712 -0.156974 0
-0.011774 -0.17386 0
-0.0058256 -0.186843 0
0.0038988 -0.181051 0
-0.00223353 -0.179092 0
-0.0149231 -0.193908 0
-0.00946001 -0.207397 0
0.00319494 -0.204698 0
0.00399039 -0.207258 0
0.00133605 -0.226468 0
0.00403922 -0.234605 0
0.00457604 -0.226717 0
-0.000667812 -0.222167 0
-0.00364413 -0.226062 0
-0.000979243 -0.237501 0
0.00161811 -0.252666 0
0.000738609 -0.263241 0
-0.00109064 -0.267787 0
-0.0018529 -0.271826 0
-0.00283021 -0.2776 0
-0.00505355 -0.284683 0
-0.00678759 -0.293329 0
-0.00585273 -0.303977 0
-0.00318137 -0.313885 0
-0.00180147 -0.322026 0
-0.00290834 -0.329627 0
-0.00498443 -0.338354 0
-0.00622711 -0.345242 0
-0.00595522 -0.34877 0
-0.00431041 -0.350824 0
-0.00177036 -0.351954 0
0.00115132 -0.352959 0
0.00390786 -0.355023 0
0.00587039 -0.35842 0
0.00642238 -0.362817 0
0.00524837 -0.368125 0
0.00262068 -0.374756 0
-0.000632173 -0.383126 0
-0.00352814 -0.393059 0
-0.00540193 -0.403743 0
-0.00611359 -0.414211 0
-0.00592694 -0.423869 0
-0.00523421 -0.432664 0
-0.00433537 -0.440874 0
-0.0033648 -0.448772 0
-0.00233721 -0.456404 0
-0.00122725 -0.463573 0
-3.08487e-05 -0.469974 0
0.00120876 -0.475339 0
0.00240986 -0.479546 0
0.00347736 -0.482628 0
0.0043275 -0.484741 0
0.00490425 -0.486098 0
0.00518599 -0.486915 0
0.00518449 -0.487377 0
0.00493899 -0.487624 0
0.00450732 -0.487751 0
0.00395612 -0.487817 0
0.00335161 -0.487856 0
0.00275231 -0.487883 0
0.00220453 -0.487906 0
0.00174082 -0.487926 0
0.00138105 -0.487943 0
0.00113349 -0.487955 0
0.00099067 -0.487962 0
-0.0132353 0.00646068 0
-0.026816 -0.000167229 0
0.000482232 -0.0243234 0
0.0394078 0.00177636 0
-0.0586999 0.0360368 0
-0.0396216 0.191649 0
0.0309104 0.0378333 0
-0.0442257 0.24522 0