<?xml version='1.0' encoding='UTF-8'?>
<VTKFile byte_order='LittleEndian' version='0.1' type = 'UnstructuredGrid'>
<UnstructuredGrid>
<FieldData>
<DataArray type='Float64' Name='Time' NumberOfComponents='1' NumberOfTuples='1' format='ascii'>
4.161
</DataArray>
</FieldData>
<Piece NumberOfCells='808' NumberOfPoints='808'>
<Points>
<DataArray NumberOfComponents='3' type='Float64' Name='position' format='ascii'>
-0.00174074 -0.000572589 0
-0.00143384 0.0248959 0
-0.00945814 0.0488245 0
-0.00350519 0.08189 0
-0.00482149 0.0984057 0
-0.000428193 0.125437 0
-0.00233332 0.15307 0
-0.00515465 0.176955 0
0.0250193 -0.000901088 0
0.0504872 -0.00153111 0
0.0746093 -0.00243694 0
0.0971831 -0.00167079 0
0.124556 -0.002637 0
0.153243 -0.00380156 0
0.175279 -0.00815508 0
0.200814 -0.0139207 0
0.213715 -0.00884176 0
0.233669 -0.00622845 0
0.251653 -0.026147 0
0.296144 -0.0277797 0
0.316798 -0.039314 0
0.334069 -0.00110783 0
0.354016 -0.236548 0
0.375198 -0.246083 0
0.4022 -0.248689 0
0.421502 -0.248632 0
0.480206 -0.238872 0
0.486184 -0.319567 0
0.526282 -0.36105 0
0.555941 -0.366402 0
0.581593 -0.360734 0
0.598909 -0.39393 0
0.630858 -0.392084 0
0.633599 -0.437159 0
0.665707 -0.486781 0
0.694799 -0.473561 0
0.71318 -0.512228 0
0.744322 -0.519324 0
0.760912 -0.515736 0
0.781641 -0.54807 0
0.823485 -0.602663 0
0.834111 -0.596975 0
0.860807 -0.595546 0
0.920267 -0.667354 0
0.936702 -0.677283 0
0.955659 -0.694089 0
0.989822 -0.709118 0
0.979705 -0.710806 0
1.02674 -0.747907 0
1.07201 -0.741251 0
1.08658 -0.770705 0
1.0943 -0.851065 0
1.13111 -0.836966 0
1.15443 -0.813795 0
1.17749 -0.876091 0
1.20548 -0.875581 0
1.24576 -0.875083 0
1.25531 -0.882676 0
1.2552 -0.921047 0
1.30695 -0.954214 0
1.32785 -0.978896 0
1.33506 -1.01236 0
1.38799 -1.00387 0
1.41728 -1.01803 0
1.41336 -1.03304 0
1.44295 -1.04814 0
1.48968 -1.06159 0
1.51283 -1.08362 0
1.52738 -1.10391 0
1.54457 -1.10535 0
1.56953 -1.12328 0
1.60614 -1.13863 0
1.61812 -1.14259 0
1.64984 -1.1703 0
1.68484 -1.19254 0
1.69879 -1.19126 0
1.71347 -1.19042 0
1.74048 -1.20706 0
1.7695 -1.22784 0
1.79498 -1.23642 0
1.81692 -1.23933 0
1.83687 -1.24799 0
1.8614 -1.26264 0
1.89225 -1.27571 0
1.91946 -1.28358 0
1.9388 -1.28805 0
1.95933 -1.29363 0
1.9873 -1.30416 0
2.01746 -1.31754 0
2.04267 -1.3262 0
2.06294 -1.32877 0
2.08427 -1.33212 0
2.11038 -1.34135 0
2.13844 -1.35268 0
2.16523 -1.36029 0
2.19019 -1.36366 0
2.21323 -1.36621 0
2.2356 -1.37074 0
2.25998 -1.37686 0
2.28731 -1.38232 0
2.31506 -1.38551 0
2.34061 -1.3871 0
2.36453 -1.38813 0
2.3888 -1.38943 0
2.41411 -1.39119 0
2.43992 -1.39285 0
2.46546 -1.39401 0
2.49055 -1.39465 0
0.0118249 0.02694 0
0.0411545 0.0218972 0
0.0597985 0.023235 0
0.100415 0.0125846 0
0.124414 0.0153504 0
0.148382 0.00907969 0
0.158271 0.0117752 0
0.195007 0.0186599 0
0.203112 3.62715e-05 0
0.242163 -0.000950394 0
0.262294 -0.00205419 0
0.286158 -0.027254 0
0.321515 -0.0304967 0
0.338712 -0.0186267 0
0.383169 -0.209627 0
0.395041 -0.22488 0
0.418213 -0.232911 0
0.411927 -0.245327 0
0.479855 -0.21734 0
0.493177 -0.259968 0
0.513819 -0.304532 0
0.551379 -0.337193 0
0.571582 -0.356132 0
0.592353 -0.358196 0
0.614942 -0.374869 0
0.646564 -0.39768 0
0.681006 -0.430102 0
0.7093 -0.4433 0
0.721964 -0.47009 0
0.744322 -0.489919 0
0.77876 -0.493093 0
0.78355 -0.514175 0
0.808545 -0.55042 0
0.856416 -0.585753 0
0.87452 -0.604697 0
0.889427 -0.628483 0
0.910076 -0.642964 0
0.946946 -0.66882 0
0.97737 -0.699045 0
0.995722 -0.701033 0
1.04693 -0.747608 0
1.05549 -0.724136 0
1.08052 -0.749407 0
1.09916 -0.780577 0
1.14112 -0.806765 0
1.16462 -0.806154 0
1.17633 -0.819447 0
1.21028 -0.832577 0
1.24711 -0.842973 0
1.25834 -0.870218 0
1.28203 -0.908201 0
1.29842 -0.926396 0
1.31234 -0.935324 0
1.34373 -0.966949 0
1.39108 -0.98025 0
1.41833 -1.00052 0
1.42717 -1.01948 0
1.45729 -1.02685 0
1.47827 -1.04199 0
1.50497 -1.04609 0
1.53808 -1.07378 0
1.54313 -1.08338 0
1.57411 -1.09939 0
1.602 -1.10772 0
1.6211 -1.12434 0
1.64714 -1.14397 0
1.67666 -1.15532 0
1.6998 -1.16131 0
1.71843 -1.16977 0
1.74059 -1.18567 0
1.76796 -1.20125 0
1.7945 -1.20942 0
1.81621 -1.21447 0
1.83731 -1.22371 0
1.8631 -1.23824 0
1.89167 -1.2507 0
1.91718 -1.25733 0
1.93885 -1.26238 0
1.96154 -1.27028 0
1.98832 -1.28128 0
2.01615 -1.29196 0
2.04064 -1.29849 0
2.06256 -1.30275 0
2.08588 -1.3085 0
2.11174 -1.31804 0
2.13834 -1.32829 0
2.16421 -1.33469 0
2.18924 -1.33796 0
2.21303 -1.34077 0
2.23638 -1.346 0
2.26102 -1.35229 0
2.28746 -1.35768 0
2.31434 -1.36048 0
2.33994 -1.36171 0
2.36445 -1.36295 0
2.38907 -1.36464 0
2.41435 -1.36655 0
2.43997 -1.36811 0
2.4654 -1.36909 0
2.4905 -1.36959 0
0.0393556 0.0594894 0
0.0477106 0.0482423 0
0.0596422 0.057424 0
0.0969884 0.0468891 0
0.115486 0.039618 0
0.136373 0.042219 0
0.171722 0.039849 0
0.181244 0.0196906 0
0.195807 0.00869199 0
0.254057 0.00456133 0
0.268572 0.006006 0
0.303394 -0.00493056 0
0.317896 -0.0143831 0
0.343168 -0.0275915 0
0.368615 -0.030733 0
0.385191 -0.191774 0
0.44001 -0.185991 0
0.442238 -0.201905 0
0.46324 -0.204618 0
0.499997 -0.230318 0
0.520876 -0.261474 0
0.530066 -0.277803 0
0.553152 -0.311021 0
0.61536 -0.331974 0
0.627527 -0.344806 0
0.658459 -0.38974 0
0.688802 -0.416791 0
0.700609 -0.436236 0
0.722334 -0.434215 0
0.74452 -0.441897 0
0.792156 -0.478284 0
0.796732 -0.512857 0
0.813802 -0.518208 0
0.844502 -0.561107 0
0.865839 -0.581997 0
0.893763 -0.609781 0
0.929936 -0.624351 0
0.953909 -0.639368 0
0.991769 -0.656489 0
1.01914 -0.664319 0
1.03321 -0.699873 0
1.07388 -0.724267 0
1.08552 -0.740748 0
1.10799 -0.745029 0
1.14329 -0.764082 0
1.16744 -0.789903 0
1.17739 -0.791219 0
1.21405 -0.800701 0
1.23152 -0.843189 0
1.26231 -0.830217 0
1.28671 -0.862274 0
1.29674 -0.9079 0
1.32423 -0.922212 0
1.34634 -0.927342 0
1.38081 -0.94964 0
1.40819 -0.977572 0
1.43358 -0.988408 0
1.45436 -1.00401 0
1.48339 -1.02366 0
1.51495 -1.02696 0
1.52475 -1.03324 0
1.54092 -1.05935 0
1.58087 -1.07971 0
1.60545 -1.08119 0
1.61726 -1.09772 0
1.64432 -1.11918 0
1.6772 -1.12592 0
1.69881 -1.13254 0
1.71799 -1.14883 0
1.74179 -1.16316 0
1.76787 -1.17415 0
1.79356 -1.18349 0
1.81601 -1.18968 0
1.83752 -1.19926 0
1.86376 -1.21337 0
1.89168 -1.22487 0
1.91596 -1.23166 0
1.93865 -1.23815 0
1.96297 -1.2467 0
1.98905 -1.25706 0
2.01518 -1.26573 0
2.0393 -1.27164 0
2.06223 -1.27751 0
2.08688 -1.28523 0
2.11297 -1.29422 0
2.13846 -1.30313 0
2.16326 -1.30901 0
2.18827 -1.31265 0
2.21299 -1.31585 0
2.23712 -1.32134 0
2.2618 -1.32777 0
2.28764 -1.33267 0
2.31383 -1.33502 0
2.33935 -1.33635 0
2.36426 -1.33799 0
2.38925 -1.34001 0
2.4146 -1.34194 0
2.44008 -1.34332 0
2.46535 -1.34412 0
2.4904 -1.34452 0
0.0250084 0.0554472 0
0.0526865 0.069176 0
0.0738519 0.0640228 0
0.111019 0.0576205 0
0.120803 0.0719313 0
0.146976 0.0694071 0
0.158333 0.064935 0
0.186236 0.0464875 0
0.209117 0.0308591 0
0.249553 0.0279662 0
0.282573 0.0141008 0
0.287056 0.00317582 0
0.326534 0.00546631 0
0.349782 -0.0200756 0
0.361375 -0.0194401 0
0.392326 -0.177933 0
0.45503 -0.153246 0
0.460523 -0.168978 0
0.47559 -0.194861 0
0.49368 -0.204403 0
0.531665 -0.236247 0
0.536696 -0.24965 0
0.561584 -0.27914 0
0.614144 -0.31834 0
0.615527 -0.342392 0
0.65494 -0.353243 0
0.691134 -0.379991 0
0.68581 -0.404975 0
0.732697 -0.398565 0
0.739916 -0.431832 0
0.763985 -0.42659 0
0.801982 -0.475417 0
0.828749 -0.497476 0
0.834139 -0.52109 0
0.890469 -0.557113 0
0.885769 -0.578244 0
0.925164 -0.59259 0
0.954726 -0.620929 0
0.970928 -0.599958 0
0.997068 -0.6332 0
1.03345 -0.636593 0
1.05519 -0.676878 0
1.07601 -0.703435 0
1.1123 -0.734932 0
1.14209 -0.723116 0
1.15027 -0.756496 0
1.20366 -0.785273 0
1.22086 -0.808396 0
1.24912 -0.823574 0
1.25273 -0.832898 0
1.27319 -0.840226 0
1.29111 -0.877702 0
1.32504 -0.906026 0
1.36363 -0.90943 0
1.37968 -0.915322 0
1.39864 -0.94327 0
1.43441 -0.968656 0
1.46197 -0.983223 0
1.48407 -0.991027 0
1.5063 -0.997244 0
1.52451 -1.01374 0
1.54563 -1.03625 0
1.57598 -1.0465 0
1.60431 -1.05829 0
1.62245 -1.07743 0
1.64428 -1.09043 0
1.67477 -1.09775 0
1.69949 -1.10854 0
1.71712 -1.12386 0
1.7405 -1.13927 0
1.76904 -1.14857 0
1.79344 -1.15555 0
1.81493 -1.16586 0
1.83836 -1.17659 0
1.8644 -1.18731 0
1.89092 -1.19825 0
1.91557 -1.20699 0
1.93893 -1.2141 0
1.9634 -1.22304 0
1.98941 -1.23204 0
2.01477 -1.23903 0
2.0383 -1.24556 0
2.06213 -1.25335 0
2.0878 -1.26166 0
2.11372 -1.26976 0
2.1383 -1.27751 0
2.16253 -1.28338 0
2.18769 -1.28742 0
2.21304 -1.29159 0
2.23773 -1.29716 0
2.26238 -1.3029 0
2.28771 -1.30716 0
2.31341 -1.30936 0
2.33889 -1.31103 0
2.36414 -1.3132 0
2.38945 -1.31548 0
2.41485 -1.31729 0
2.44016 -1.31839 0
2.46527 -1.31903 0
2.49025 -1.31943 0
0.0335159 0.0790967 0
0.0541065 0.0891567 0
0.0719542 0.0893732 0
0.0919448 0.073949 0
0.132263 0.107857 0
0.131224 0.086759 0
0.179348 0.0808614 0
0.202296 0.094541 0
0.233957 0.0686827 0
0.251759 0.0478999 0
0.280448 0.0360172 0
0.29738 0.030744 0
0.331911 0.0164291 0
0.353907 -0.00198834 0
0.378576 -0.0224293 0
0.388187 -0.0531517 0
0.417723 -0.143269 0
0.454014 -0.138484 0
0.470488 -0.159184 0
0.515658 -0.167874 0
0.505296 -0.208389 0
0.519528 -0.215944 0
0.560526 -0.241641 0
0.612986 -0.260618 0
0.646994 -0.308745 0
0.653867 -0.320847 0
0.680003 -0.350667 0
0.697132 -0.362602 0
0.720351 -0.374026 0
0.77357 -0.353476 0
0.766764 -0.413672 0
0.791053 -0.442495 0
0.828247 -0.465478 0
0.847417 -0.460981 0
0.859761 -0.509106 0
0.881385 -0.547219 0
0.901654 -0.568309 0
0.966956 -0.580418 0
0.982856 -0.602272 0
1.00694 -0.635017 0
1.02316 -0.639117 0
1.05914 -0.665959 0
1.06327 -0.683568 0
1.10702 -0.703309 0
1.15186 -0.719032 0
1.16136 -0.734131 0
1.1802 -0.764987 0
1.22068 -0.777611 0
1.22769 -0.789911 0
1.25901 -0.797786 0
1.28123 -0.847665 0
1.30957 -0.869841 0
1.32848 -0.86599 0
1.36287 -0.878182 0
1.38378 -0.90369 0
1.4046 -0.921164 0
1.4341 -0.933308 0
1.45631 -0.949547 0
1.47715 -0.961985 0
1.50683 -0.971328 0
1.53088 -0.99546 0
1.54684 -1.01657 0
1.57124 -1.01833 0
1.60222 -1.02882 0
1.62688 -1.05549 0
1.64793 -1.06825 0
1.67233 -1.06848 0
1.69717 -1.08255 0
1.71824 -1.10251 0
1.74035 -1.11279 0
1.76757 -1.12044 0
1.79359 -1.13102 0
1.81543 -1.14176 0
1.8386 -1.15283 0
1.86473 -1.16288 0
1.89049 -1.17158 0
1.91495 -1.18154 0
1.93923 -1.19086 0
1.96389 -1.19841 0
1.98934 -1.20609 0
2.01438 -1.21341 0
2.03803 -1.22024 0
2.06235 -1.22903 0
2.08838 -1.23805 0
2.11397 -1.24485 0
2.13787 -1.25127 0
2.16195 -1.2577 0
2.18756 -1.26319 0
2.21329 -1.2677 0
2.23813 -1.27281 0
2.2627 -1.2778 0
2.28764 -1.2813 0
2.31302 -1.28363 0
2.33857 -1.28588 0
2.36417 -1.28859 0
2.38973 -1.29096 0
2.41507 -1.29244 0
2.44017 -1.29322 0
2.46516 -1.29381 0
2.49016 -1.29431 0
0.0394709 0.132487 0
0.0409773 0.110871 0
0.0686842 0.117288 0
0.0719632 0.128237 0
0.121415 0.112256 0
0.151538 0.110822 0
0.180169 0.102655 0
0.20583 0.11123 0
0.233521 0.104523 0
0.262643 0.0987102 0
0.269056 0.0551864 0
0.28293 0.0481965 0
0.323053 0.0292832 0
0.349722 0.02866 0
0.383192 -0.00404842 0
0.409657 -0.0520051 0
0.395966 -0.0942793 0
0.424043 -0.119286 0
0.47388 -0.113978 0
0.508332 -0.157962 0
0.533499 -0.18468 0
0.529634 -0.219457 0
0.559657 -0.221844 0
0.617242 -0.269707 0
0.637143 -0.286321 0
0.666044 -0.305937 0
0.68319 -0.306164 0
0.693265 -0.320038 0
0.719895 -0.328788 0
0.758582 -0.335333 0
0.798733 -0.391744 0
0.805559 -0.424857 0
0.828433 -0.437568 0
0.829297 -0.475682 0
0.858479 -0.478849 0
0.878251 -0.501054 0
0.922789 -0.532581 0
0.954407 -0.547091 0
0.989169 -0.572364 0
1.01104 -0.589562 0
1.02376 -0.615139 0
1.05772 -0.638647 0
1.07681 -0.645928 0
1.11859 -0.672247 0
1.14324 -0.676776 0
1.1676 -0.709356 0
1.17373 -0.723007 0
1.20296 -0.741556 0
1.22161 -0.763076 0
1.25775 -0.780483 0
1.27493 -0.817058 0
1.3181 -0.842859 0
1.33133 -0.844997 0
1.36304 -0.859718 0
1.38442 -0.876138 0
1.40708 -0.894489 0
1.4358 -0.908068 0
1.4521 -0.917726 0
1.47307 -0.933109 0
1.51028 -0.956057 0
1.53491 -0.976359 0
1.54675 -0.985366 0
1.56995 -0.990259 0
1.60268 -1.00892 0
1.62825 -1.03056 0
1.64899 -1.0386 0
1.67172 -1.04345 0
1.69505 -1.05928 0
1.7179 -1.07715 0
1.74205 -1.08657 0
1.76697 -1.09385 0
1.79149 -1.10575 0
1.81586 -1.1186 0
1.84029 -1.12924 0
1.86486 -1.13756 0
1.88952 -1.14588 0
1.91425 -1.15629 0
1.93931 -1.16636 0
1.96467 -1.17374 0
1.9896 -1.18062 0
2.01374 -1.18778 0
2.03788 -1.19583 0
2.06306 -1.20508 0
2.08878 -1.21333 0
2.11346 -1.2195 0
2.13728 -1.22551 0
2.16184 -1.23208 0
2.18769 -1.2387 0
2.21356 -1.24406 0
2.23848 -1.24889 0
2.26282 -1.25243 0
2.28734 -1.25508 0
2.31254 -1.25785 0
2.33839 -1.26109 0
2.36441 -1.26427 0
2.39007 -1.26635 0
2.4152 -1.26728 0
2.44008 -1.26784 0
2.46508 -1.26858 0
2.49022 -1.26932 0
0.0327565 0.140794 0
0.0427052 0.148181 0
0.0557874 0.132135 0
0.0796478 0.156099 0
0.134966 0.163589 0
0.142909 0.133614 0
0.173985 0.132796 0
0.187432 0.130025 0
0.218706 0.122984 0
0.255378 0.114095 0
0.268583 0.0871495 0
0.299662 0.081735 0
0.330384 0.0371188 0
0.357864 0.0228547 0
0.374375 0.0163658 0
0.407599 -0.00203869 0
0.420654 -0.0688206 0
0.403716 -0.103754 0
0.459083 -0.108513 0
0.492604 -0.119109 0
0.540099 -0.116672 0
0.528654 -0.20676 0
0.5687 -0.235323 0
0.580744 -0.246139 0
0.665729 -0.237752 0
0.673241 -0.27203 0
0.685678 -0.264861 0
0.699951 -0.293805 0
0.729301 -0.296308 0
0.76009 -0.288137 0
0.791716 -0.343342 0
0.806032 -0.38086 0
0.818209 -0.437964 0
0.844815 -0.431652 0
0.871923 -0.444193 0
0.892983 -0.47206 0
0.916642 -0.508107 0
0.976318 -0.531585 0
0.987542 -0.55971 0
1.02692 -0.575677 0
1.03907 -0.572274 0
1.04228 -0.599514 0
1.06071 -0.59662 0
1.09675 -0.647979 0
1.13179 -0.670138 0
1.17355 -0.686347 0
1.17909 -0.694897 0
1.20136 -0.703424 0
1.22559 -0.734057 0
1.2604 -0.769235 0
1.28108 -0.766011 0
1.30818 -0.811984 0
1.32892 -0.823624 0
1.36825 -0.834555 0
1.38496 -0.85453 0
1.4024 -0.867014 0
1.43664 -0.88102 0
1.45952 -0.895715 0
1.47474 -0.910344 0
1.50293 -0.932375 0
1.53321 -0.951036 0
1.55446 -0.958418 0
1.57487 -0.968866 0
1.59958 -0.988052 0
1.62611 -1.00158 0
1.65053 -1.00837 0
1.67124 -1.0201 0
1.69212 -1.0362 0
1.71805 -1.05049 0
1.74472 -1.06049 0
1.76706 -1.06842 0
1.7889 -1.08072 0
1.81499 -1.09581 0
1.84239 -1.10541 0
1.86615 -1.11191 0
1.88796 -1.12038 0
1.9126 -1.13123 0
1.93978 -1.14142 0
1.96605 -1.14904 0
1.98988 -1.1553 0
2.01293 -1.16276 0
2.03761 -1.17208 0
2.06382 -1.18077 0
2.0892 -1.18777 0
2.11275 -1.19385 0
2.13647 -1.20022 0
2.16188 -1.20715 0
2.18823 -1.2142 0
2.21403 -1.22059 0
2.23865 -1.22475 0
2.26262 -1.22684 0
2.28681 -1.22868 0
2.31211 -1.23221 0
2.33841 -1.23682 0
2.36476 -1.24023 0
2.39038 -1.24156 0
2.41522 -1.24182 0
2.43995 -1.24237 0
2.46506 -1.24348 0
2.4904 -1.24452 0
0.0139849 0.19489 0
0.0318299 0.181561 0
0.0590456 0.1772 0
0.0708108 0.162678 0
0.122668 0.160395 0
0.141476 0.186453 0
0.180808 0.151829 0
0.203238 0.147723 0
0.21965 0.147008 0
0.22986 0.122132 0
0.274708 0.098488 0
0.29282 0.113288 0
0.326094 0.0791483 0
0.370718 0.0320935 0
0.388275 0.0132319 0
0.411685 0.0158591 0
0.451405 0.00259852 0
0.471977 -0.0172565 0
0.482658 -0.0777518 0
0.504648 -0.0790658 0
0.5313 -0.096425 0
0.571452 -0.166324 0
0.584506 -0.194605 0
0.60459 -0.227611 0
0.653393 -0.195162 0
0.660634 -0.246403 0
0.672815 -0.255528 0
0.70215 -0.276238 0
0.736261 -0.272972 0
0.761213 -0.262964 0
0.784074 -0.350575 0
0.805827 -0.352377 0
0.821078 -0.395127 0
0.860641 -0.393338 0
0.871464 -0.4543 0
0.895722 -0.44371 0
0.918151 -0.458054 0
0.944914 -0.47296 0
0.954077 -0.515505 0
1.01893 -0.554622 0
1.02764 -0.541816 0
1.05439 -0.551288 0
1.09298 -0.587636 0
1.09476 -0.607955 0
1.13409 -0.625784 0
1.16189 -0.652603 0
1.19524 -0.650479 0
1.21225 -0.688354 0
1.22589 -0.724062 0
1.27476 -0.740482 0
1.28094 -0.721378 0
1.30712 -0.767082 0
1.32883 -0.795324 0
1.371 -0.817347 0
1.38325 -0.818328 0
1.40309 -0.852385 0
1.43641 -0.852875 0
1.46759 -0.866609 0
1.47267 -0.882745 0
1.49206 -0.909988 0
1.53368 -0.932957 0
1.56545 -0.93445 0
1.57913 -0.943551 0
1.59399 -0.963662 0
1.62353 -0.977271 0
1.65341 -0.98276 0
1.67091 -0.99322 0
1.68832 -1.01125 0
1.71767 -1.02692 0
1.74849 -1.03499 0
1.76821 -1.04248 0
1.78533 -1.05621 0
1.81301 -1.07233 0
1.84516 -1.08235 0
1.86856 -1.08632 0
1.886 -1.09334 0
1.90964 -1.10628 0
1.94064 -1.11812 0
1.96864 -1.12429 0
1.98999 -1.12926 0
2.0114 -1.13812 0
2.03725 -1.14857 0
2.0648 -1.1563 0
2.08971 -1.16217 0
2.1121 -1.16834 0
2.13554 -1.17527 0
2.16171 -1.18232 0
2.18895 -1.19019 0
2.21477 -1.19697 0
2.2388 -1.20028 0
2.26209 -1.20073 0
2.28611 -1.20227 0
2.31182 -1.20722 0
2.33859 -1.213 0
2.36517 -1.21624 0
2.39063 -1.21659 0
2.41514 -1.21623 0
2.43978 -1.21698 0
2.46508 -1.21857 0
2.49065 -1.21987 0
</DataArray>
</Points>
<PointData>
<DataArray NumberOfComponents='1' type='Int32' Name='Particle Type' format='ascii'>
0
0
0
0
0
0
0
0
0
0
0
0
0
0
0
0
0
0
0
0
0
0
1
1
1
1
1
1
1
1
1
1
1
1
1
1
1
1
1
1
1
1
1
1
1
1
1
1
1
1
1
1
1
1
1
1
1
1
1
1
1
1
1
1
1
1
1
1
1
1
1
1
1
1
1
1
1
1
1
1
1
1
1
1
1
1
1
1
1
1
1
1
1
1
1
1
1
1
1
1
1
1
1
1
1
1
1
1
1
1
1
1
1
1
1
1
1
1
1
1
1
1
1
1
1
1
1
1
1
1
1
1
1
1
1
1
1
1
1
1
1
1
1
1
1
1
1
1
1
1
1
1
1
1
1
1
1
1
1
1
1
1
1
1
1
1
1
1
1
1
1
1
1
1
1
1
1
1
1
1
1
1
1
1
1
1
1
1
1
1
1
1
1
1
1
1
1
1
1
1
1
1
1
1
1
1
1
1
1
1
1
1
1
1
1
1
1
1
1
1
1
1
1
1
1
1
1
1
1
1
1
1
1
1
1
1
1
1
1
1
1
1
1
1
1
1
1
1
1
1
1
1
1
1
1
1
1
1
1
1
1
1
1
1
1
1
1
1
1
1
1
1
1
1
1
1
1
1
1
1
1
1
1
1
1
1
1
1
1
1
1
1
1
1
1
1
1
1
1
1
1
1
1
1
1
1
1
1
1
1
1
1
1
1
1
1
1
1
1
1
1
1
1
1
1
1
1
1
1
1
1
1
1
1
1
1
1
1
1
1
1
1
1
1
1
1
1
1
1
1
1
1
1
1
1
1
1
1
1
1
1
1
1
1
1
1
1
1
1
1
1
1
1
1
1
1
1
1
1
1
1
1
1
1
1
1
1
1
1
1
1
1
1
1
1
1
1
1
1
1
1
1
1
1
1
1
1
1
1
1
1
1
1
1
1
1
1
1
1
1
1
1
1
1
1
1
1
1
1
1
1
1
1
1
1
1
1
1
1
1
1
1
1
1
1
1
1
1
1
1
1
1
1
1
1
1
1
1
1
1
1
1
1
1
1
1
1
1
1
1
1
1
1
1
1
1
1
1
1
1
1
1
1
1
1
1
1
1
1
1
1
1
1
1
1
1
1
1
1
1
1
1
1
1
1
1
1
1
1
1
1
1
1
1
1
1
1
1
1
1
1
1
1
1
1
1
1
1
1
1
1
1
1
1
1
1
1
1
1
1
1
1
1
1
1
1
1
1
1
1
1
1
1
1
1
1
1
1
1
1
1
1
1
1
1
1
1
1
1
1
1
1
1
1
1
1
1
1
1
1
1
1
1
1
1
1
1
1
1
1
1
1
1
1
1
1
1
1
1
1
1
1
1
1
1
1
1
1
1
1
1
1
1
1
1
1
1
1
1
1
1
1
1
1
1
1
1
1
1
1
1
1
1
1
1
1
1
1
1
1
1
1
1
1
1
1
1
1
1
1
1
1
1
1
1
1
1
1
1
1
1
1
1
1
1
1
1
1
1
1
1
1
1
1
1
1
1
1
1
1
1
1
1
1
1
1
1
1
1
1
1
1
1
1
1
1
1
1
1
1
1
1
1
1
1
1
1
1
1
1
1
1
1
1
1
1
1
1
1
1
1
1
1
1
1
1
1
1
1
1
1
1
1
1
1
1
1
1
1
1
1
1
1
1
1
1
1
1
1
1
1
1
1
1
1
1
1
1
1
1
1
1
1
1
1
1
1
1
1
1
1
1
1
1
1
1
1
1
1
1
1
1
1
1
1
1
1
1
1
1
1
1
1
1
1
1
1
1
1
1
1
1
1
1
1
1
1
1
</DataArray>
<DataArray NumberOfComponents='3' type='Float64' Name='Velocity' format='ascii'>
-0.735699 -0.250069 0
-0.471442 0.0583466 0
-1.07722 -0.0829008 0
-0.469878 0.544375 0
-0.780329 -0.107387 0
-0.0375138 0.336517 0
-0.630034 0.430136 0
-0.772271 0.333739 0
0.107389 -0.408196 0
0.0415355 -0.657705 0
0.136195 -0.516678 0
-0.245806 -0.396407 0
0.0337184 -0.468349 0
0.376891 -0.837306 0
-0.146835 -0.834983 0
0.061625 -0.975356 0
-0.593831 -0.324714 0
-0.912366 -0.492835 0
-0.855123 -0.261107 0
0.955353 -0.540594 0
0.0245939 -0.7824 0
0.267661 -0.0743826 0
0.500998 -0.954751 0
-1.24411 0.302464 0
-0.0965718 -0.506447 0
-0.186299 -0.948305 0
0.23812 -0.73235 0
-0.503527 -0.259103 0
-0.543811 -0.322749 0
-0.388058 -0.763318 0
0.0634171 -0.346532 0
0.143481 -1.38547 0
0.327627 -0.488669 0
-0.0156926 1.44101 0
0.446239 -0.488825 0
0.211306 0.446793 0
-0.193484 -1.07769 0
-0.33321 -1.1162 0
0.534244 -0.214808 0
0.169583 0.363997 0
-0.517348 0.0728625 0
0.00953504 -0.225386 0
1.79885 0.474597 0
-0.61968 -0.314621 0
-0.682005 -0.385937 0
1.07434 -0.85694 0
0.0173783 0.030809 0
-0.0105142 0.00781142 0
0.232695 -0.465033 0
-0.203869 -0.344706 0
0.554595 1.17207 0
-0.443596 0.171434 0
0.267545 -1.9738 0
-0.0431164 0.362821 0
0.361642 -0.509178 0
0.114468 -0.980345 0
0.0668548 -0.660061 0
0.833161 -0.31817 0
-0.357865 0.603509 0
-0.29771 0.0968379 0
0.477161 0.271402 0
-0.526525 -1.027 0
-0.567661 -0.543435 0
0.337697 -0.683223 0
0.431249 -0.141839 0
-0.561903 -0.633724 0
-0.6335 -0.118432 0
0.263703 -0.185071 0
0.123678 -0.547344 0
0.729231 -0.725512 0
-0.461232 -0.126443 0
-0.152651 -0.49095 0
0.41607 -0.498352 0
-0.486617 0.174003 0
0.0378565 -0.507492 0
0.42798 -0.864984 0
0.120062 -0.507634 0
-0.156028 -0.0377332 0
-0.097677 -0.214033 0
0.0350316 -0.529633 0
0.145974 -0.490632 0
0.103454 -0.24845 0
-0.120187 -0.168342 0
-0.178593 -0.287855 0
0.0593357 -0.416035 0
0.187818 -0.432586 0
0.00775789 -0.306265 0
-0.183624 -0.144694 0
-0.129237 -0.177182 0
0.0652702 -0.395946 0
0.139291 -0.484633 0
0.0176532 -0.351639 0
-0.112465 -0.197157 0
-0.126069 -0.217217 0
-0.0579553 -0.3666 0
0.0199242 -0.447608 0
0.0703189 -0.412184 0
0.0420413 -0.317046 0
-0.0602972 -0.254026 0
-0.120511 -0.268736 0
-0.0723336 -0.31389 0
0.0158533 -0.344608 0
0.045738 -0.346047 0
0.0167393 -0.314261 0
-0.0221181 -0.280676 0
-0.0377302 -0.273994 0
-0.0321984 -0.296131 0
-0.0272808 -0.328208 0
0.386008 -0.12542 0
0.32587 0.828051 0
-0.491201 -0.344289 0
0.206666 -0.365099 0
-0.0828514 -0.302857 0
0.00448221 -0.382481 0
0.280611 -0.295727 0
-0.101415 0.282525 0
-0.555286 -0.00361257 0
-0.733912 0.604673 0
-0.209543 0.405853 0
0.368072 1.01135 0
-0.149722 -0.429397 0
-0.182687 -0.284108 0
0.299869 -0.600831 0
-0.0387519 -0.0530323 0
0.722892 -0.631741 0
0.0301805 -0.0349384 0
-0.216817 -0.585192 0
-0.650897 0.143524 0
0.012821 -0.637316 0
-0.171243 1.13656 0
0.120133 0.515469 0
-0.470755 -0.178623 0
0.469327 -0.790871 0
0.322736 -0.586009 0
-0.6268 -0.414648 0
0.123163 -0.858526 0
-0.500868 -0.717847 0
-0.414328 -0.6296 0
-0.400972 -0.107758 0
0.670305 -0.607359 0
0.244621 0.254474 0
0.080104 -1.36895 0
-0.028167 1.63652 0
-0.929928 -1.95523 0
-0.17673 -0.330202 0
-0.588543 -1.19594 0
-0.706617 0.000258171 0
-0.242676 0.283832 0
0.0745347 0.17532 0
-0.453828 -1.10439 0
0.374861 -0.687385 0
-0.651977 0.00937426 0
0.427647 -0.812984 0
0.17542 -0.342021 0
0.0865166 0.365524 0
-0.433527 -0.137274 0
-0.338063 -0.590283 0
0.295167 0.611201 0
-0.0589858 -0.0295844 0
0.772142 -1.05003 0
0.116521 0.566363 0
-0.448696 -0.238444 0
-0.642592 -0.566369 0
0.11403 -0.0412978 0
0.603495 -0.49178 0
-0.000667342 -0.584558 0
0.0670568 -0.600036 0
-0.117458 -0.432451 0
0.0879479 -0.176681 0
0.228433 -0.374276 0
-0.211779 -0.492734 0
0.0870799 -0.420932 0
0.075735 -0.174044 0
-0.119156 -0.349524 0
-0.100622 -0.51114 0
0.123433 -0.540083 0
0.163464 -0.343246 0
-0.00539045 -0.182883 0
-0.110007 -0.319519 0
0.0248883 -0.497651 0
0.142672 -0.451669 0
0.0502505 -0.251104 0
-0.104092 -0.164443 0
-0.0943779 -0.310329 0
0.0440977 -0.430515 0
0.0962407 -0.373289 0
-0.00866818 -0.24953 0
-0.114655 -0.188907 0
-0.0684554 -0.283449 0
0.0483972 -0.399343 0
0.0644077 -0.405447 0
-0.0159158 -0.297999 0
-0.0796066 -0.206493 0
-0.0759948 -0.269315 0
-0.0412103 -0.390273 0
0.00333736 -0.448428 0
0.038589 -0.385099 0
0.0176585 -0.290802 0
-0.0451746 -0.247033 0
-0.0853179 -0.276076 0
-0.0589009 -0.336298 0
-0.000437204 -0.353872 0
0.02477 -0.336416 0
0.00914358 -0.304282 0
-0.0168215 -0.28065 0
-0.0290412 -0.280735 0
-0.0281125 -0.298167 0
-0.0281956 -0.318142 0
-1.56678 -0.334926 0
-0.171342 0.109254 0
0.0684031 0.343904 0
-0.270836 -0.404339 0
0.20857 -0.816981 0
-0.557561 1.08432 0
0.0170888 -0.183028 0
-0.0360725 0.230069 0
0.359089 0.218692 0
-0.408823 0.0382413 0
0.267137 0.347965 0
0.353235 0.331522 0
-0.10244 -0.576172 0
-0.104228 -0.217833 0
0.581448 0.66912 0
0.0557547 -0.38142 0
1.18652 -0.0611921 0
0.201632 -0.0308669 0
-0.84318 -0.139666 0
1.09242 -0.235646 0
-0.261482 -0.221992 0
0.405212 -0.212639 0
0.935256 -0.120121 0
-0.499913 -0.657446 0
0.251163 -0.182104 0
0.42745 0.222196 0
-0.085625 -0.507807 0
-0.0401419 -0.636707 0
0.203392 1.15432 0
-1.31158 0.295261 0
-0.335191 -0.0165307 0
-0.676209 0.231809 0
0.270711 -0.104376 0
-1.18385 -0.0656822 0
-0.0745435 -0.30777 0
0.275275 -1.18846 0
0.112231 -0.835878 0
0.294045 -0.31987 0
-0.652196 -0.455892 0
-1.29789 -0.39339 0
-0.230907 -0.293233 0
0.906725 0.611591 0
0.920126 -0.694054 0
1.13901 -0.106679 0
-0.559521 0.0868607 0
0.146519 -1.17755 0
0.178395 -0.354862 0
0.296477 0.890249 0
-0.183875 -1.72754 0
0.292495 -0.467923 0
0.157575 0.745872 0
0.243764 -0.0109734 0
0.172638 -0.655499 0
0.0884574 -0.318005 0
-0.14425 0.217052 0
-0.0520188 -0.257652 0
0.0332371 -0.510138 0
0.0300613 -0.099643 0
-0.397282 -0.489151 0
0.0911699 -0.704708 0
0.763945 -0.612428 0
-0.259417 0.150181 0
-0.357482 -0.593051 0
0.36883 -0.618605 0
0.22556 -0.109169 0
-0.295331 -0.340464 0
-0.121156 -0.646318 0
0.171849 -0.348273 0
0.0949222 -0.201763 0
-0.0171344 -0.34469 0
-0.0473708 -0.366941 0
0.0184458 -0.449624 0
0.124337 -0.445469 0
0.0411304 -0.245067 0
-0.110148 -0.186108 0
-0.0561141 -0.324079 0
0.0543432 -0.389952 0
0.0396161 -0.333778 0
-0.0281453 -0.246402 0
-0.0634579 -0.243237 0
-0.0299148 -0.336741 0
0.035393 -0.378435 0
0.0178467 -0.335565 0
-0.0508785 -0.27042 0
-0.061945 -0.252781 0
-0.029244 -0.304141 0
-0.01742 -0.391955 0
-0.0161539 -0.427806 0
0.00428963 -0.364531 0
0.00470367 -0.266764 0
-0.0328019 -0.244851 0
-0.0597904 -0.296011 0
-0.0446708 -0.348413 0
-0.00941373 -0.35067 0
0.00746185 -0.326411 0
-0.000283614 -0.29946 0
-0.014742 -0.2856 0
-0.0219517 -0.289243 0
-0.0238535 -0.298741 0
-0.0282479 -0.304874 0
1.30077 -0.131218 0
-0.256863 -0.378753 0
-0.677586 0.763325 0
1.06045 -0.138389 0
0.41283 0.131332 0
-0.481469 -0.614319 0
-0.336458 0.237283 0
0.616111 0.209276 0
-0.820991 0.700561 0
-0.122412 0.350715 0
-0.309701 -1.23388 0
-0.0466595 0.402403 0
-0.0660199 -0.417103 0
-0.215775 -0.128211 0
0.205721 0.699099 0
-0.325274 -1.1744 0
-0.934917 -1.38181 0
0.155849 0.26137 0
0.144754 -0.134336 0
-0.15055 0.827736 0
-0.916175 -0.559892 0
0.372297 -0.0853687 0
-0.0483755 0.502596 0
-0.710366 -0.460241 0
0.0502127 -0.716335 0
-0.748459 -0.880514 0
0.452291 0.275367 0
0.0709083 -0.258376 0
0.372558 -1.21495 0
-0.0912146 -0.0366125 0
-0.0902064 0.251315 0
-0.0928852 0.129673 0
0.896391 -0.0740926 0
-0.0298078 0.0346159 0
-0.631269 0.202247 0
0.798413 0.743545 0
-0.445467 0.0555306 0
-0.0790183 -0.6375 0
0.387635 0.100524 0
0.86066 -0.399802 0
-0.650803 -0.475803 0
0.174499 0.0678401 0
-1.43184 -0.400464 0
-1.23434 -0.86795 0
0.0477223 -0.112171 0
-0.951827 -0.530547 0
-0.393545 -0.205608 0
-0.447021 -0.00210201 0
0.297477 -0.70287 0
0.437046 -0.849335 0
0.0169769 0.184312 0
0.306206 0.172474 0
-0.697468 -0.293131 0
-0.0376203 -0.874306 0
0.514139 -0.275203 0
-0.144296 0.191583 0
-0.32901 -0.165326 0
0.0273926 -0.537114 0
0.143599 -0.73138 0
0.216593 -0.559168 0
0.209286 -0.192409 0
-0.0470343 -0.328533 0
-0.232204 -0.520171 0
0.0664583 -0.281027 0
0.212178 -0.321286 0
-0.0990399 -0.506538 0
-0.173078 -0.474877 0
0.14852 -0.327343 0
0.171426 -0.222585 0
-0.0877162 -0.30973 0
-0.0815218 -0.483715 0
0.0899039 -0.413917 0
0.0948279 -0.311214 0
0.000333076 -0.314685 0
-0.0642296 -0.266395 0
-0.0403302 -0.273071 0
0.0279299 -0.339373 0
0.0311767 -0.319781 0
-0.0296686 -0.260365 0
-0.0509196 -0.314695 0
0.000295272 -0.355322 0
0.0279311 -0.320624 0
-0.0229285 -0.291122 0
-0.0678712 -0.287445 0
-0.0392445 -0.29408 0
-0.00137366 -0.32569 0
-0.0109613 -0.385834 0
-0.0307169 -0.398544 0
-0.0181272 -0.331903 0
-0.0033413 -0.269828 0
-0.0193627 -0.262218 0
-0.0395097 -0.309038 0
-0.0348191 -0.350494 0
-0.0159509 -0.340744 0
-0.00699287 -0.315502 0
-0.00931432 -0.298352 0
-0.0129853 -0.295293 0
-0.0158946 -0.299261 0
-0.0213848 -0.298748 0
-0.0293292 -0.292859 0
-1.11643 0.557505 0
0.755115 -0.504206 0
-0.51733 -0.134275 0
-0.484254 -0.176249 0
0.737028 0.846363 0
-1.07425 -0.232697 0
-0.443405 -0.569774 0
0.660303 0.090764 0
0.346869 -0.571237 0
0.485102 -0.249126 0
0.0549536 -0.408963 0
0.345509 0.609077 0
-0.137193 0.0147342 0
0.431089 0.0250703 0
0.447911 0.227296 0
-0.620658 0.672441 0
1.02875 -0.108506 0
0.113234 -0.298273 0
-0.189421 -0.831836 0
-0.401484 0.433973 0
0.481404 -0.902605 0
-0.239295 -0.570409 0
-0.688186 -0.396458 0
0.523056 0.25101 0
-1.11608 -0.918023 0
-0.301321 -1.35802 0
-0.151546 -0.663476 0
0.207938 0.309972 0
-0.0113061 0.336285 0
0.129718 -0.240456 0
1.59732 0.0973624 0
0.540266 0.728342 0
-0.637322 -0.991573 0
0.231831 0.532091 0
0.258611 -0.0703002 0
-0.082099 0.284347 0
-0.841593 -0.25396 0
0.164309 -0.425672 0
0.437555 -0.632426 0
0.992764 0.30987 0
0.187342 -0.424571 0
-0.211303 -0.474164 0
0.260014 -0.139576 0
-0.480539 -0.485147 0
0.361032 -0.280102 0
1.17536 -1.05751 0
-0.519351 0.219371 0
0.437562 -0.314312 0
0.579337 0.0989144 0
0.212734 0.186753 0
-0.100146 0.218677 0
0.178614 -0.973122 0
-0.189011 -0.946218 0
-0.140093 -0.120764 0
0.249678 -0.126369 0
0.00571545 -0.481122 0
-0.00116104 -0.483568 0
0.207354 -0.398473 0
-0.0129959 -0.594384 0
-0.106496 -0.349853 0
0.215398 0.0249668 0
0.20515 -0.536714 0
-0.164325 -0.765616 0
-0.167852 -0.139659 0
0.0566752 -0.0639655 0
0.0648543 -0.690104 0
-0.0237048 -0.598059 0
0.0508896 -0.112297 0
0.133176 -0.250774 0
-0.00819412 -0.48698 0
-0.105749 -0.40894 0
0.0367741 -0.336211 0
0.108155 -0.318692 0
0.00384047 -0.292712 0
-0.054422 -0.332468 0
-0.016868 -0.29652 0
0.0098548 -0.255268 0
0.00888907 -0.302826 0
-0.0175903 -0.332353 0
-0.0351906 -0.319069 0
0.000812198 -0.344795 0
0.0173356 -0.304691 0
-0.0385806 -0.251468 0
-0.0693212 -0.301621 0
-0.0187373 -0.349181 0
0.016234 -0.346627 0
-0.0226609 -0.337342 0
-0.0500959 -0.359984 0
-0.0256334 -0.334033 0
-0.00231595 -0.279303 0
-0.00745975 -0.28351 0
-0.0230222 -0.319332 0
-0.0286656 -0.340935 0
-0.0248829 -0.325434 0
-0.0207963 -0.306383 0
-0.015063 -0.304195 0
-0.00843173 -0.309296 0
-0.0102402 -0.307816 0
-0.0212075 -0.297961 0
-0.0317284 -0.287321 0
-0.0271659 -0.206375 0
-0.0579261 -0.211177 0
-0.0684418 0.0942566 0
0.70626 -0.0791032 0
0.493242 0.528382 0
-0.441224 0.11198 0
0.205946 0.576323 0
0.37902 0.108065 0
-0.0168359 -0.224254 0
0.501532 -0.325724 0
0.178948 -0.2489 0
-0.925457 0.432488 0
-0.0956066 -0.0398322 0
-0.198567 -0.124808 0
0.582361 0.482587 0
0.414257 -0.0101865 0
0.0512448 0.552242 0
-0.821576 0.64187 0
0.105922 0.14053 0
0.765542 -0.574616 0
0.335879 -0.61068 0
-0.0573376 -0.469468 0
0.689133 0.104573 0
0.522812 0.332536 0
0.205857 -1.05353 0
0.021444 -0.313721 0
-0.159695 0.389194 0
-0.166372 0.696394 0
1.33553 -0.49081 0
1.18742 -0.350932 0
0.811292 -1.22691 0
-0.251164 -0.176717 0
0.724083 -0.9732 0
0.206436 -0.692272 0