<?xml version='1.0' encoding='UTF-8'?>
<VTKFile byte_order='LittleEndian' version='0.1' type = 'UnstructuredGrid'>
<UnstructuredGrid>
<FieldData>
<DataArray type='Float64' Name='Time' NumberOfComponents='1' NumberOfTuples='1' format='ascii'>
4.641
</DataArray>
</FieldData>
<Piece NumberOfCells='808' NumberOfPoints='808'>
<Points>
<DataArray NumberOfComponents='3' type='Float64' Name='position' format='ascii'>
-0.00201484 -0.00174893 0
-0.00265088 0.0249012 0
-0.00945814 0.0488245 0
-0.0071515 0.0874482 0
-0.00751351 0.0950629 0
-0.000237252 0.125334 0
-0.00752124 0.150103 0
-0.00533823 0.177438 0
0.0269399 -0.00173179 0
0.0444678 -0.0062981 0
0.0755701 -0.00406963 0
0.0971091 -0.00277907 0
0.12326 -0.00288562 0
0.153998 -0.00656833 0
0.1759 -0.0139203 0
0.204029 -0.0159187 0
0.207148 -0.010506 0
0.231942 -0.0152915 0
0.251653 -0.026147 0
0.296709 -0.0299744 0
0.314648 -0.0435058 0
0.334522 -0.00131233 0
0.364586 -0.585376 0
0.401304 -0.549991 0
0.420774 -0.558447 0
0.435992 -0.58118 0
0.464373 -0.565965 0
0.47987 -0.579989 0
0.472513 -0.606186 0
0.523669 -0.598761 0
0.55499 -0.614777 0
0.601348 -0.588142 0
0.605047 -0.615028 0
0.642156 -0.60498 0
0.656284 -0.620127 0
0.683862 -0.596008 0
0.707389 -0.600642 0
0.750326 -0.621887 0
0.781323 -0.63382 0
0.81881 -0.653359 0
0.826276 -0.68226 0
0.835528 -0.744974 0
0.886743 -0.772578 0
0.804993 -0.930883 0
0.962361 -0.905487 0
0.970759 -0.893691 0
0.982056 -0.888863 0
0.995924 -0.880002 0
0.99356 -0.90522 0
1.04563 -0.914841 0
1.09028 -0.94773 0
1.13582 -0.933395 0
1.11771 -1.04265 0
1.17787 -1.09797 0
1.17861 -1.05743 0
1.18995 -1.08232 0
1.22239 -1.09794 0
1.25493 -1.10549 0
1.2888 -1.1078 0
1.30198 -1.10584 0
1.34383 -1.10889 0
1.33702 -1.1475 0
1.37921 -1.19447 0
1.43525 -1.19914 0
1.44151 -1.2148 0
1.44744 -1.22392 0
1.47387 -1.23748 0
1.512 -1.26243 0
1.53176 -1.26651 0
1.56411 -1.26068 0
1.58344 -1.28309 0
1.62877 -1.30938 0
1.62334 -1.31779 0
1.63392 -1.33954 0
1.67514 -1.33859 0
1.7121 -1.32712 0
1.71158 -1.35385 0
1.7507 -1.38224 0
1.76637 -1.36375 0
1.79376 -1.38733 0
1.83885 -1.4251 0
1.85472 -1.42642 0
1.87685 -1.42265 0
1.90478 -1.42962 0
1.93039 -1.43884 0
1.94723 -1.44197 0
1.95784 -1.44449 0
1.98781 -1.45403 0
2.02012 -1.45932 0
2.04565 -1.46475 0
2.07024 -1.47352 0
2.08224 -1.47564 0
2.11073 -1.48569 0
2.14406 -1.49229 0
2.16448 -1.49045 0
2.1811 -1.4896 0
2.2034 -1.49522 0
2.23065 -1.50452 0
2.25767 -1.50593 0
2.28225 -1.50358 0
2.30448 -1.50689 0
2.32473 -1.51688 0
2.348 -1.52305 0
2.37785 -1.52065 0
2.41023 -1.51544 0
2.43613 -1.51518 0
2.4534 -1.5209 0
2.47033 -1.52618 0
0.0302721 0.0293949 0
0.0440021 0.0214543 0
0.0840939 0.0208894 0
0.088376 0.0326591 0
0.108776 -0.000229655 0
0.134091 -0.0065817 0
0.174443 0.0146554 0
0.188461 -0.00408793 0
0.209177 0.0194476 0
0.239078 0.0070564 0
0.267475 0.0391655 0
0.292159 0.0292082 0
0.326604 0.0525931 0
0.327651 0.00624372 0
0.333383 -0.602496 0
0.394596 -0.579645 0
0.419499 -0.547432 0
0.457675 -0.535359 0
0.456067 -0.556769 0
0.500892 -0.544582 0
0.491973 -0.5647 0
0.526183 -0.58565 0
0.58896 -0.578111 0
0.600033 -0.576366 0
0.616699 -0.590144 0
0.636595 -0.594537 0
0.680875 -0.579967 0
0.689352 -0.570216 0
0.738983 -0.604528 0
0.750633 -0.58546 0
0.782843 -0.617813 0
0.810765 -0.634076 0
0.848035 -0.67408 0
0.839128 -0.713167 0
0.881027 -0.760188 0
0.904993 -0.736375 0
0.924588 -0.754319 0
0.969664 -0.872965 0
0.976939 -0.879825 0
0.989397 -0.866836 0
1.00806 -0.867979 0
1.06309 -0.885897 0
1.08563 -0.890885 0
1.10471 -0.900216 0
1.13981 -0.942565 0
1.17948 -0.976277 0
1.17638 -1.00581 0
1.20053 -1.06498 0
1.20712 -1.03106 0
1.22775 -1.07983 0
1.27683 -1.07077 0
1.3048 -1.0867 0
1.34285 -1.09457 0
1.34347 -1.1322 0
1.36692 -1.15564 0
1.40726 -1.16177 0
1.43175 -1.17308 0
1.45835 -1.1733 0
1.47114 -1.1966 0
1.49762 -1.22226 0
1.53169 -1.23837 0
1.56705 -1.23822 0
1.58546 -1.26066 0
1.61686 -1.27244 0
1.62903 -1.29727 0
1.64097 -1.30265 0
1.67169 -1.31421 0
1.71744 -1.31441 0
1.72211 -1.33097 0
1.74636 -1.34312 0
1.78235 -1.35371 0
1.78909 -1.3611 0
1.83728 -1.3863 0
1.85289 -1.39574 0
1.87272 -1.40411 0
1.90768 -1.40503 0
1.93037 -1.40175 0
1.94429 -1.40908 0
1.96296 -1.42514 0
1.9875 -1.43375 0
2.02048 -1.43461 0
2.05095 -1.43743 0
2.06625 -1.44308 0
2.08259 -1.4527 0
2.11058 -1.46154 0
2.14063 -1.46243 0
2.16285 -1.46041 0
2.1813 -1.46369 0
2.20465 -1.47345 0
2.23168 -1.47963 0
2.25737 -1.47986 0
2.28094 -1.4783 0
2.30323 -1.48226 0
2.32595 -1.49113 0
2.35077 -1.4968 0
2.3787 -1.49544 0
2.40792 -1.49141 0
2.43327 -1.49067 0
2.45307 -1.4947 0
2.47215 -1.50015 0
0.027599 0.0650284 0
0.0513972 0.0569944 0
0.0899634 0.0592629 0
0.0974404 0.0443104 0
0.10921 0.0361748 0
0.130985 0.0293181 0
0.162629 0.035837 0
0.196584 0.0475327 0
0.220121 0.0466906 0
0.253572 0.0689847 0
0.308577 0.0829813 0
0.302388 0.0602153 0
0.329951 0.0716315 0
0.347235 0.089806 0
0.377374 0.0968316 0
0.395626 -0.535084 0
0.404838 -0.52072 0
0.43989 -0.528729 0
0.471532 -0.513525 0
0.479573 -0.52518 0
0.519135 -0.55105 0
0.551039 -0.531387 0
0.58917 -0.522725 0
0.598512 -0.533246 0
0.642407 -0.552587 0
0.657238 -0.549796 0
0.672939 -0.564389 0
0.68171 -0.557926 0
0.727583 -0.568914 0
0.760489 -0.571337 0
0.772271 -0.56942 0
0.800082 -0.61287 0
0.840984 -0.648629 0
0.827293 -0.703346 0
0.874834 -0.707488 0
0.907443 -0.719809 0
0.933555 -0.737889 0
0.962243 -0.759711 0
0.962512 -0.821885 0
1.01057 -0.816188 0
1.03345 -0.813241 0
1.06036 -0.860827 0
1.08277 -0.876155 0
1.09963 -0.86979 0
1.11586 -0.917194 0
1.11793 -0.950511 0
1.17265 -0.988203 0
1.19761 -1.01416 0
1.22258 -1.02034 0
1.23893 -1.03489 0
1.25911 -1.06146 0
1.29472 -1.07858 0
1.3191 -1.09578 0
1.37455 -1.10999 0
1.37755 -1.13112 0
1.40663 -1.14714 0
1.44491 -1.15425 0
1.45112 -1.16583 0
1.46835 -1.17855 0
1.49343 -1.18051 0
1.53244 -1.20307 0
1.57113 -1.22309 0
1.57985 -1.23584 0
1.61032 -1.25185 0
1.63091 -1.24322 0
1.65531 -1.28112 0
1.67739 -1.28194 0
1.68983 -1.31167 0
1.73532 -1.29046 0
1.76304 -1.317 0
1.78072 -1.34194 0
1.79779 -1.33677 0
1.82304 -1.34304 0
1.85391 -1.37136 0
1.8791 -1.38457 0
1.90082 -1.37679 0
1.92838 -1.37288 0
1.94992 -1.38524 0
1.96479 -1.40542 0
1.98902 -1.4121 0
2.02086 -1.40433 0
2.0462 -1.40582 0
2.06587 -1.42064 0
2.08596 -1.43104 0
2.10982 -1.43479 0
2.13783 -1.43393 0
2.16274 -1.43197 0
2.18215 -1.43841 0
2.20391 -1.45004 0
2.23171 -1.45627 0
2.2585 -1.45319 0
2.28035 -1.45245 0
2.30224 -1.45885 0
2.32659 -1.46556 0
2.35254 -1.46958 0
2.37945 -1.46913 0
2.40631 -1.46682 0
2.43107 -1.46673 0
2.45247 -1.47065 0
2.47289 -1.47628 0
0.00893151 0.0847498 0
0.0634416 0.0566798 0
0.093025 0.0698055 0
0.0966349 0.0799027 0
0.102727 0.0599519 0
0.132129 0.0621804 0
0.174883 0.0829517 0
0.210265 0.0769475 0
0.237531 0.102797 0
0.25602 0.116793 0
0.269732 0.116007 0
0.298201 0.104066 0
0.317868 0.11949 0
0.37065 0.108326 0
0.386151 0.121947 0
0.377595 -0.509206 0
0.41307 -0.506808 0
0.467737 -0.489192 0
0.462565 -0.498643 0
0.480918 -0.507656 0
0.513004 -0.5025 0
0.533747 -0.524889 0
0.587803 -0.49828 0
0.620875 -0.513264 0
0.617904 -0.5036 0
0.659551 -0.508302 0
0.666081 -0.536251 0
0.67728 -0.534988 0
0.711016 -0.529957 0
0.755159 -0.54323 0
0.793801 -0.559678 0
0.814422 -0.604959 0
0.818094 -0.624628 0
0.866508 -0.655168 0
0.870987 -0.692265 0
0.901798 -0.695627 0
0.94054 -0.71806 0
0.95795 -0.724587 0
0.970318 -0.769345 0
1.00089 -0.790659 0
1.02178 -0.800504 0
1.07599 -0.829307 0
1.0877 -0.853371 0
1.11092 -0.877687 0
1.12545 -0.911961 0
1.1566 -0.918257 0
1.18273 -0.933164 0
1.19667 -0.978783 0
1.22982 -0.998695 0
1.23555 -1.0082 0
1.27364 -1.01378 0
1.29165 -1.02418 0
1.33537 -1.06952 0
1.36578 -1.08131 0
1.3887 -1.0989 0
1.41487 -1.12659 0
1.41831 -1.14255 0
1.47238 -1.13147 0
1.47917 -1.15768 0
1.51608 -1.18221 0
1.54789 -1.17586 0
1.53868 -1.1809 0
1.58653 -1.19611 0
1.62554 -1.22067 0
1.6228 -1.23381 0
1.65349 -1.24042 0
1.67679 -1.26918 0
1.69246 -1.27655 0
1.7247 -1.27921 0
1.77329 -1.28778 0
1.77911 -1.31032 0
1.79705 -1.32156 0
1.82656 -1.31441 0
1.8532 -1.33812 0
1.87787 -1.36463 0
1.90009 -1.35086 0
1.92498 -1.34401 0
1.95198 -1.36587 0
1.97047 -1.38231 0
1.98839 -1.38296 0
2.0176 -1.37878 0
2.04648 -1.38137 0
2.06684 -1.39597 0
2.08631 -1.40771 0
2.10959 -1.40837 0
2.13632 -1.40494 0
2.16191 -1.40492 0
2.18341 -1.41515 0
2.20478 -1.42629 0
2.23094 -1.43024 0
2.25806 -1.42738 0
2.28063 -1.4278 0
2.30213 -1.43447 0
2.32689 -1.4405 0
2.35345 -1.44291 0
2.37961 -1.44208 0
2.40518 -1.44124 0
2.42981 -1.44309 0
2.45231 -1.4476 0
2.47378 -1.4526 0
0.0325884 0.110861 0
0.0551572 0.103043 0
0.0789417 0.106391 0
0.10581 0.124298 0
0.108821 0.0990471 0
0.15408 0.0965602 0
0.183847 0.114033 0
0.187309 0.104199 0
0.210801 0.122777 0
0.270175 0.139333 0
0.285736 0.147632 0
0.301037 0.162125 0
0.328909 0.16003 0
0.341107 0.163787 0
0.373989 0.160083 0
0.416789 0.155052 0
0.408149 -0.495129 0
0.453962 -0.469468 0
0.484718 -0.460737 0
0.478996 -0.481405 0
0.521855 -0.495388 0
0.567346 -0.478855 0
0.613885 -0.48528 0
0.623374 -0.480823 0
0.635675 -0.472183 0
0.6317 -0.501204 0
0.689277 -0.480432 0
0.677993 -0.518933 0
0.735762 -0.531294 0
0.746537 -0.533311 0
0.776495 -0.550053 0
0.814921 -0.573386 0
0.826429 -0.592724 0
0.835137 -0.605304 0
0.8814 -0.627991 0
0.908726 -0.669699 0
0.919106 -0.68715 0
0.950949 -0.715158 0
0.979141 -0.743491 0
0.998431 -0.77198 0
1.03475 -0.782732 0
1.04468 -0.802572 0
1.06899 -0.81769 0
1.11201 -0.838573 0
1.13633 -0.877084 0
1.14824 -0.884628 0
1.17503 -0.901325 0
1.19668 -0.947174 0
1.22247 -0.952912 0
1.2669 -0.959669 0
1.2868 -0.987111 0
1.29574 -1.00489 0
1.34802 -1.03309 0
1.36768 -1.04892 0
1.38594 -1.06985 0
1.40107 -1.08115 0
1.44294 -1.11585 0
1.45091 -1.10801 0
1.47101 -1.09716 0
1.51329 -1.13903 0
1.55901 -1.15739 0
1.56092 -1.17397 0
1.57863 -1.16722 0
1.60142 -1.18815 0
1.62603 -1.1997 0
1.65111 -1.20375 0
1.68585 -1.24979 0
1.70338 -1.26144 0
1.72808 -1.23781 0
1.75255 -1.26819 0
1.78493 -1.28848 0
1.7968 -1.28619 0
1.83236 -1.29469 0
1.85924 -1.31871 0
1.87314 -1.32768 0
1.89639 -1.32419 0
1.92719 -1.32805 0
1.95244 -1.3415 0
1.971 -1.35295 0
1.9902 -1.35605 0
2.01605 -1.35317 0
2.04448 -1.35943 0
2.06873 -1.37184 0
2.08785 -1.37915 0
2.1081 -1.38096 0
2.1348 -1.37958 0
2.16262 -1.38076 0
2.18458 -1.38981 0
2.20505 -1.40147 0
2.23025 -1.40476 0
2.25729 -1.4011 0
2.28082 -1.40274 0
2.30278 -1.41041 0
2.32745 -1.41595 0
2.3535 -1.41624 0
2.37905 -1.41488 0
2.40451 -1.41594 0
2.42969 -1.41979 0
2.453 -1.4244 0
2.47493 -1.42818 0
0.0207817 0.15009 0
0.0458973 0.141366 0
0.0935832 0.132275 0
0.102281 0.139086 0
0.104493 0.148838 0
0.143336 0.161692 0
0.159904 0.116817 0
0.182414 0.133381 0
0.231605 0.150558 0
0.260578 0.169377 0
0.306804 0.174785 0
0.315637 0.181787 0
0.337756 0.180803 0
0.34893 0.206837 0
0.377498 0.200968 0
0.399369 0.20718 0
0.427473 0.210676 0
0.447298 -0.445809 0
0.46953 -0.445291 0
0.470366 -0.461893 0
0.504126 -0.471522 0
0.531938 -0.466095 0
0.575067 -0.455345 0
0.601715 -0.486276 0
0.655793 -0.442678 0
0.665663 -0.453456 0
0.674862 -0.4658 0
0.704151 -0.450236 0
0.714129 -0.51091 0
0.732355 -0.513234 0
0.775121 -0.518789 0
0.803069 -0.551436 0
0.837096 -0.575966 0
0.867013 -0.577048 0
0.882054 -0.590903 0
0.902198 -0.622078 0
0.919365 -0.658017 0
0.963025 -0.703501 0
0.990652 -0.726704 0
0.996978 -0.749799 0
1.02786 -0.765929 0
1.04562 -0.777288 0
1.07138 -0.784343 0
1.09166 -0.817588 0
1.12479 -0.827121 0
1.15318 -0.87498 0
1.19361 -0.87906 0
1.19449 -0.918879 0
1.21333 -0.937487 0
1.24455 -0.962739 0
1.29438 -0.993722 0
1.31422 -0.993005 0
1.33336 -1.00845 0
1.37297 -1.03367 0
1.39143 -1.03027 0
1.39636 -1.05309 0
1.42683 -1.06706 0
1.44964 -1.08761 0
1.4782 -1.07941 0
1.50266 -1.09942 0
1.54073 -1.12749 0
1.56201 -1.126 0
1.58808 -1.14902 0
1.59698 -1.15955 0
1.63013 -1.17851 0
1.65894 -1.18141 0
1.67656 -1.21495 0
1.69789 -1.23358 0
1.72378 -1.22674 0
1.75767 -1.2341 0
1.77679 -1.25063 0
1.80206 -1.26275 0
1.83543 -1.27898 0
1.86 -1.28971 0
1.87373 -1.29224 0
1.89542 -1.29781 0
1.92658 -1.30997 0
1.9525 -1.31893 0
1.97154 -1.32378 0
1.99137 -1.32623 0
2.01549 -1.33122 0
2.04264 -1.33729 0
2.06936 -1.34423 0
2.08954 -1.35095 0
2.10745 -1.35283 0
2.13323 -1.35503 0
2.16278 -1.35839 0
2.1864 -1.36578 0
2.20551 -1.37353 0
2.22868 -1.37645 0
2.25618 -1.37679 0
2.28143 -1.37985 0
2.30419 -1.38576 0
2.32795 -1.38997 0
2.35292 -1.38998 0
2.37825 -1.38917 0
2.40444 -1.39169 0
2.43054 -1.39652 0
2.45407 -1.40009 0
2.47523 -1.40158 0
0.0227392 0.160844 0
0.0455279 0.162889 0
0.0714832 0.152892 0
0.106266 0.15901 0
0.102283 0.168182 0
0.129418 0.174482 0
0.168845 0.151797 0
0.197597 0.157482 0
0.241682 0.195455 0
0.263523 0.22696 0
0.294145 0.223777 0
0.308868 0.207395 0
0.337224 0.22903 0
0.36894 0.22886 0
0.381544 0.229552 0
0.394737 0.228617 0
0.8159 -0.0312083 0
0.432028 -0.411055 0
0.460398 -0.425339 0
0.475851 -0.42875 0
0.51634 -0.44139 0
0.517607 -0.430954 0
0.544215 -0.441094 0
0.603534 -0.446402 0
0.638081 -0.437649 0
0.667922 -0.429879 0
0.703512 -0.399465 0
0.707169 -0.423221 0
0.715538 -0.451685 0
0.747031 -0.495375 0
0.755192 -0.506412 0
0.796373 -0.523553 0
0.834582 -0.536491 0
0.863831 -0.551122 0
0.892416 -0.585129 0
0.903988 -0.601076 0
0.937223 -0.634863 0
0.955559 -0.653282 0
0.987521 -0.668559 0
1.00656 -0.715518 0
1.0233 -0.714173 0
1.05519 -0.723922 0
1.06734 -0.750531 0
1.11304 -0.795307 0
1.11579 -0.817477 0
1.14036 -0.849255 0
1.17631 -0.849548 0
1.20715 -0.904217 0
1.22389 -0.939178 0
1.26983 -0.930597 0
1.26646 -0.942809 0
1.3127 -0.959743 0
1.33093 -0.970953 0
1.37778 -0.99369 0
1.39077 -1.01104 0
1.4089 -1.05126 0
1.4289 -1.05185 0
1.46727 -1.05402 0
1.50258 -1.05758 0
1.50789 -1.07371 0
1.52774 -1.07818 0
1.55971 -1.07919 0
1.58827 -1.10616 0
1.61386 -1.1452 0
1.6367 -1.1551 0
1.65549 -1.16738 0
1.68313 -1.1803 0
1.7054 -1.20508 0
1.72191 -1.21479 0
1.75122 -1.20896 0
1.77915 -1.21099 0
1.80053 -1.24134 0
1.83237 -1.25897 0
1.86122 -1.26238 0
1.87859 -1.25586 0
1.89582 -1.26843 0
1.92383 -1.29359 0
1.95253 -1.29891 0
1.97404 -1.29255 0
1.991 -1.2964 0
2.01273 -1.30819 0
2.04194 -1.31511 0
2.07074 -1.31816 0
2.09034 -1.31996 0
2.10716 -1.324 0
2.13234 -1.33196 0
2.16278 -1.33767 0
2.18747 -1.34113 0
2.20598 -1.34357 0
2.22755 -1.34821 0
2.25454 -1.35301 0
2.28181 -1.35738 0
2.30606 -1.36163 0
2.32875 -1.36313 0
2.352 -1.36349 0
2.37718 -1.36475 0
2.40484 -1.36867 0
2.43207 -1.37314 0
2.4548 -1.374 0
2.47385 -1.37174 0
0.0154749 0.181873 0
0.0538538 0.182041 0
0.069914 0.194491 0
0.112685 0.189448 0
0.14317 0.197018 0
0.131814 0.186488 0
0.170251 0.171499 0
0.17255 0.19604 0
0.227471 0.22002 0
0.241904 0.231744 0
0.267829 0.238954 0
0.319494 0.236826 0
0.342777 0.23904 0
0.352963 0.252675 0
0.397702 0.239194 0
0.409761 0.243252 0
0.401119 0.251294 0
0.456103 -0.38271 0
0.441512 -0.394319 0
0.489563 -0.42525 0
0.559306 -0.243259 0
0.593329 -0.258224 0
0.547532 -0.418524 0
0.582346 -0.420035 0
0.628011 -0.416778 0
0.667621 -0.393844 0
0.695155 -0.378717 0
0.718333 -0.372202 0
0.717122 -0.400608 0
0.735804 -0.402515 0
0.757254 -0.405653 0
0.802858 -0.473468 0
0.83529 -0.486739 0
0.845464 -0.521072 0
0.899853 -0.551872 0
0.916168 -0.571686 0
0.930953 -0.594966 0
0.952569 -0.570763 0
1.2819 -0.528632 0
1.001 -0.665857 0
1.03241 -0.668148 0
1.05248 -0.680583 0
1.07986 -0.718821 0
1.10702 -0.754247 0
1.10622 -0.814036 0
1.13793 -0.830771 0
1.15473 -0.822236 0
1.19825 -0.890562 0
1.22098 -0.902047 0
1.2387 -0.90821 0
1.2829 -0.975712 0
1.32496 -0.943215 0
1.34536 -0.950975 0
1.38219 -0.968532 0
1.4034 -0.997745 0
1.40957 -1.02995 0
1.43621 -1.0281 0
1.46327 -1.0138 0
1.51583 -1.01619 0
1.52048 -1.05994 0
1.53485 -1.06509 0
1.56775 -1.04514 0
1.59488 -1.0886 0
1.61211 -1.10448 0
1.62457 -1.13846 0
1.6547 -1.14122 0
1.69596 -1.1567 0
1.69555 -1.16839 0
1.72769 -1.19929 0
1.75509 -1.19084 0
1.77357 -1.17586 0
1.79839 -1.21257 0
1.83011 -1.24846 0
1.86043 -1.23412 0
1.88304 -1.21903 0
1.89766 -1.24381 0
1.92033 -1.27613 0
1.95311 -1.27881 0
1.97756 -1.26312 0
1.98925 -1.26389 0
2.00829 -1.28417 0
2.04241 -1.29698 0
2.07376 -1.29081 0
2.09081 -1.2871 0
2.10563 -1.29668 0
2.13137 -1.31053 0
2.16345 -1.31641 0
2.1888 -1.31458 0
2.20596 -1.31325 0
2.22566 -1.31923 0
2.25304 -1.32935 0
2.2829 -1.336 0
2.30843 -1.33661 0
2.32936 -1.33564 0
2.35038 -1.33636 0
2.37551 -1.34014 0
2.4056 -1.34633 0
2.43449 -1.34937 0
2.45524 -1.34599 0
2.47066 -1.33974 0
</DataArray>
</Points>
<PointData>
<DataArray NumberOfComponents='1' type='Int32' Name='Particle Type' format='ascii'>
0
0
0
0
0
0
0
0
0
0
0
0
0
0
0
0
0
0
0
0
0
0
1
1
1
1
1
1
1
1
1
1
1
1
1
1
1
1
1
1
1
1
1
1
1
1
1
1
1
1
1
1
1
1
1
1
1
1
1
1
1
1
1
1
1
1
1
1
1
1
1
1
1
1
1
1
1
1
1
1
1
1
1
1
1
1
1
1
1
1
1
1
1
1
1
1
1
1
1
1
1
1
1
1
1
1
1
1
1
1
1
1
1
1
1
1
1
1
1
1
1
1
1
1
1
1
1
1
1
1
1
1
1
1
1
1
1
1
1
1
1
1
1
1
1
1
1
1
1
1
1
1
1
1
1
1
1
1
1
1
1
1
1
1
1
1
1
1
1
1
1
1
1
1
1
1
1
1
1
1
1
1
1
1
1
1
1
1
1
1
1
1
1
1
1
1
1
1
1
1
1
1
1
1
1
1
1
1
1
1
1
1
1
1
1
1
1
1
1
1
1
1
1
1
1
1
1
1
1
1
1
1
1
1
1
1
1
1
1
1
1
1
1
1
1
1
1
1
1
1
1
1
1
1
1
1
1
1
1
1
1
1
1
1
1
1
1
1
1
1
1
1
1
1
1
1
1
1
1
1
1
1
1
1
1
1
1
1
1
1
1
1
1
1
1
1
1
1
1
1
1
1
1
1
1
1
1
1
1
1
1
1
1
1
1
1
1
1
1
1
1
1
1
1
1
1
1
1
1
1
1
1
1
1
1
1
1
1
1
1
1
1
1
1
1
1
1
1
1
1
1
1
1
1
1
1
1
1
1
1
1
1
1
1
1
1
1
1
1
1
1
1
1
1
1
1
1
1
1
1
1
1
1
1
1
1
1
1
1
1
1
1
1
1
1
1
1
1
1
1
1
1
1
1
1
1
1
1
1
1
1
1
1
1
1
1
1
1
1
1
1
1
1
1
1
1
1
1
1
1
1
1
1
1
1
1
1
1
1
1
1
1
1
1
1
1
1
1
1
1
1
1
1
1
1
1
1
1
1
1
1
1
1
1
1
1
1
1
1
1
1
1
1
1
1
1
1
1
1
1
1
1
1
1
1
1
1
1
1
1
1
1
1
1
1
1
1
1
1
1
1
1
1
1
1
1
1
1
1
1
1
1
1
1
1
1
1
1
1
1
1
1
1
1
1
1
1
1
1
1
1
1
1
1
1
1
1
1
1
1
1
1
1
1
1
1
1
1
1
1
1
1
1
1
1
1
1
1
1
1
1
1
1
1
1
1
1
1
1
1
1
1
1
1
1
1
1
1
1
1
1
1
1
1
1
1
1
1
1
1
1
1
1
1
1
1
1
1
1
1
1
1
1
1
1
1
1
1
1
1
1
1
1
1
1
1
1
1
1
1
1
1
1
1
1
1
1
1
1
1
1
1
1
1
1
1
1
1
1
1
1
1
1
1
1
1
1
1
1
1
1
1
1
1
1
1
1
1
1
1
1
1
1
1
1
1
1
1
1
1
1
1
1
1
1
1
1
1
1
1
1
1
1
1
1
1
1
1
1
1
1
1
1
1
1
1
1
1
1
1
1
1
1
1
1
1
1
1
1
1
1
1
1
1
1
1
1
1
1
1
1
1
1
1
1
1
1
1
1
1
1
1
1
1
1
1
1
1
1
1
1
1
1
1
1
1
1
1
1
1
1
1
1
1
1
1
1
1
1
1
1
1
1
1
1
1
1
1
1
1
1
1
1
1
1
1
1
1
1
1
1
1
1
1
1
1
1
1
1
1
1
1
1
1
1
1
1
1
1
1
1
1
1
1
1
1
1
1
</DataArray>
<DataArray NumberOfComponents='3' type='Float64' Name='Velocity' format='ascii'>
-0.735997 -0.2641 0
-0.58728 0.035594 0
-1.07722 -0.0829008 0
-0.620877 0.952867 0
-0.788915 -0.18557 0
-0.00889386 0.467799 0
-1.28465 -0.0832856 0
-0.772271 0.333739 0
0.598271 -0.455134 0
-0.569497 -1.09535 0
0.192672 -0.588781 0
-0.242944 -0.465911 0
-0.409616 -0.181202 0
0.376891 -0.837306 0
0.0480942 -1.01038 0
-0.425703 -0.836261 0
-0.272176 -0.263387 0
0.0826538 -0.639002 0
-0.855123 -0.261107 0
0.918981 -0.937343 0
0.0245939 -0.7824 0
-0.0083596 -0.175386 0
0.351441 -0.857292 0
-0.826265 -0.611282 0
0.454254 -0.25817 0
0.26385 -0.650146 0
0.506525 -0.746357 0
0.337164 -0.902509 0
-0.705748 -1.69725 0
-0.437498 -1.35029 0
-0.123439 -1.30394 0
-0.0798232 -1.16985 0
0.212695 0.492938 0
0.17133 -0.531409 0
-0.473126 -1.00924 0
-0.0905963 -0.555263 0
0.108556 0.0710802 0
-0.249518 -0.976898 0
-0.369914 0.669469 0
0.743289 -0.1731 0
0.887452 0.215403 0
-0.274549 0.1197 0
-0.186807 -0.982823 0
-0.511353 -1.02102 0
-0.0442857 -0.431642 0
0.831731 -0.416679 0
-0.636115 -0.395853 0
-0.131464 -0.131083 0
0.436582 -0.0599829 0
-0.437625 0.265389 0
0.0371121 -0.712925 0
-0.480524 -0.684706 0
-0.364423 -0.306588 0
-0.00486129 -0.756173 0
-0.0768624 -0.747493 0
0.0669578 -0.25416 0
-1.45062 -0.585304 0
0.801577 -0.363312 0
0.499144 -1.27066 0
0.426815 0.201118 0
0.825719 0.00456295 0
-0.587739 0.836238 0
0.43309 -0.0728609 0
-1.19594 0.123522 0
0.119205 -0.382326 0
0.864189 0.326831 0
-0.444096 -1.14488 0
0.469958 -0.519181 0
-0.294841 -1.21189 0
0.367053 -0.376999 0
-0.315112 -0.0812026 0
0.412958 -0.0295364 0
0.726545 -0.210852 0
-0.222767 -0.562473 0
-0.0237911 -0.641159 0
0.49504 -0.494199 0
0.0949676 0.661715 0
-0.173288 -0.678193 0
0.329713 -0.879136 0
-0.600862 0.70799 0
-0.165227 -0.0960307 0
0.196656 -0.716839 0
-0.0850791 -0.48326 0
-0.121717 -0.191367 0
0.0688968 -0.314406 0
0.495166 -0.496431 0
0.184916 -0.309801 0
-0.254131 -0.207685 0
-0.112465 -0.310794 0
-0.0642899 -0.281055 0
0.0403963 -0.320915 0
0.463216 -0.295645 0
-0.365315 -0.0307556 0
-0.088107 -0.330454 0
0.237599 -0.456314 0
0.190011 -0.326533 0
-0.0227349 -0.0495835 0
-0.103758 -0.117747 0
-0.0504796 -0.372111 0
0.0051542 -0.400174 0
0.0430247 -0.191859 0
0.0149169 -0.0787466 0
-0.0901831 -0.179966 0
-0.118778 -0.261577 0
0.0384275 -0.24841 0
0.20555 -0.209174 0
0.0830095 -0.213411 0
-0.25248 -0.253367 0
0.000546432 -0.966252 0
0.134477 0.701458 0
0.143311 0.99259 0
-0.257239 -0.126572 0
-0.236573 -0.187451 0
-0.403981 -0.648517 0
0.496148 0.0982118 0
1.15025 0.29309 0
0.186741 0.294729 0
-0.182161 -0.247199 0
0.156648 -0.624178 0
-0.0690697 -0.347688 0
0.475642 0.230328 0
0.237509 0.344797 0
0.56819 -0.240649 0
0.342179 -1.56868 0
0.17879 -1.02156 0
-0.451392 -1.00942 0
-0.31738 -0.598111 0
0.44414 -0.909993 0
0.20326 -0.943433 0
0.0259067 -0.98694 0
-0.224907 -0.898448 0
0.16573 -0.627709 0
-1.1341 -1.36683 0
0.0354547 -1.05141 0
1.22332 0.748015 0
0.134995 0.260778 0
0.212587 -0.911974 0
0.268365 -0.90665 0
0.327809 -0.147958 0
-0.379164 0.183541 0
-0.0887043 -0.41006 0
-0.649009 0.57901 0
-0.130169 -0.802105 0
-0.182178 -0.259943 0
-0.811009 -0.72577 0
0.064718 -0.0199284 0
0.800505 0.496217 0
0.681856 -0.46508 0
0.695338 0.463686 0
0.383788 -0.934708 0
0.518822 -0.99694 0
0.320915 -0.518018 0
-1.07621 -0.996284 0
1.64955 0.59967 0
1.84889 0.0854866 0
-0.621828 -1.57787 0
-0.518177 -1.13679 0
0.437697 -0.0977692 0
0.396633 -0.577971 0
-1.05485 -0.68345 0
0.0122965 -0.232276 0
0.277932 0.0722095 0
-0.611346 -0.128401 0
0.0430466 -0.76169 0
1.54494 -0.822403 0
0.0819385 -0.612645 0
0.106656 0.788879 0
-0.209572 -0.356179 0
-0.633468 -0.372028 0
-0.391138 0.0290414 0
-0.037116 -0.0484636 0
-0.463225 0.0229267 0
0.404268 0.249746 0
0.0355896 -0.323678 0
-0.793658 -0.496669 0
-0.73569 -0.437602 0
0.852352 -0.195573 0
-0.530731 -0.430395 0
0.0884827 -0.133434 0
0.0688165 -0.424998 0
-0.294554 -0.109882 0
0.395986 -0.337707 0
-0.222578 -0.37866 0
-0.241075 -0.604255 0
0.267726 -0.455607 0
0.307961 -0.037147 0
0.112737 -0.0103686 0
-0.122875 -0.357128 0
-0.324573 -0.453805 0
0.102639 -0.405844 0
0.410654 -0.27279 0
0.0741815 -0.0765185 0
-0.198955 -0.264713 0
-0.0704843 -0.43045 0
0.171717 -0.404734 0
0.12829 -0.122729 0
-0.0527178 -0.0622292 0
-0.0715866 -0.221141 0
-0.00795699 -0.392708 0
0.0329552 -0.371128 0
0.017878 -0.180917 0
-0.0295309 -0.086407 0
-0.0604876 -0.170475 0
-0.058925 -0.27215 0
0.00734138 -0.289426 0
0.0882244 -0.253316 0
0.0395122 -0.188895 0
-0.129783 -0.104628 0
-0.773488 -0.300507 0
0.629141 -0.101178 0
0.328868 -0.547084 0
0.212395 0.282956 0
0.234856 0.0578806 0
-0.0733808 0.885039 0
-0.537002 -0.504306 0
0.177285 0.0160717 0
1.39037 -0.134363 0
-0.195604 -0.132533 0
-0.0518829 -0.414884 0
-0.0361214 0.767347 0
-0.73525 0.854963 0
1.05593 0.440509 0
-0.181466 0.419924 0
-0.729568 -0.895096 0
-0.448852 0.149608 0
0.645272 -0.919963 0
0.354845 0.015952 0
0.838504 -0.304967 0
-1.36093 -1.74675 0
-1.04956 -0.324408 0
0.163533 -0.670876 0
-0.249802 -0.325783 0
0.251044 -1.10771 0
0.641867 -1.80317 0
-0.785965 -0.242833 0
-0.263129 -0.517896 0
-1.01832 -0.553179 0
-0.199223 0.871249 0
0.422173 0.328674 0
0.00468387 -0.134551 0
0.720728 -1.04915 0
-1.06947 0.958544 0
0.314818 0.401692 0
0.79111 0.435489 0
-0.482184 -0.253521 0
-0.623211 -0.471823 0
-0.307336 -0.75508 0
0.542717 -0.535938 0
-0.0079164 -0.95831 0
-0.565349 -0.6203 0
0.391832 -0.218357 0
0.26034 -0.0915382 0
-0.420426 -1.2 0
0.58957 0.413486 0
-0.307433 0.16272 0
0.0659529 -1.18255 0
-0.669665 -1.00401 0
-0.103193 0.157271 0
-0.503701 -0.63006 0
-0.972613 0.634863 0
-0.630288 -0.94415 0
0.226154 0.148475 0
1.35089 0.0115263 0
-0.655123 -0.11345 0
-0.867428 -0.590719 0
0.171253 -0.286118 0
0.578776 0.221023 0
-0.60048 0.755898 0
0.327529 0.728231 0
0.411585 -0.775236 0
0.267853 -0.35939 0
0.215824 -0.940071 0
0.46588 -0.387482 0
-0.247996 -0.612897 0
0.839338 0.122388 0
-0.472473 -0.738322 0
-0.394297 -0.684842 0
0.00669746 0.538768 0
0.484266 -0.465035 0
0.197048 -0.868244 0
-0.110936 0.0502776 0
-0.20991 0.191798 0
0.0762364 -0.57154 0
-0.0377395 -0.810682 0
-0.0886546 -0.358204 0
0.25213 0.111533 0
0.214868 0.0413454 0
-0.158426 -0.610587 0
-0.127366 -0.690275 0
0.121365 -0.155057 0
0.176122 -0.0068332 0
0.103523 -0.221513 0
-0.0596881 -0.373493 0
-0.102536 -0.478222 0
0.0900737 -0.32545 0
0.154153 -0.0281325 0
-0.0347159 -0.0117494 0
-0.142962 -0.30444 0
0.00843104 -0.478713 0
0.0980514 -0.274509 0
0.0145923 -0.152942 0
-0.0576254 -0.125211 0
-0.0587902 -0.155206 0
-0.031809 -0.23555 0
-0.0115894 -0.297088 0
0.0029813 -0.289676 0
-0.00463069 -0.189857 0
-0.0391133 -0.0730119 0
0.733044 0.26435 0
0.433599 0.426573 0
-0.159066 0.026768 0
0.917387 -0.0298028 0
-0.610506 -0.380976 0
0.271762 0.850795 0
0.389171 -0.101943 0
0.310022 0.0271374 0
-0.916722 0.024782 0
-1.14881 0.275312 0
-0.496509 0.415825 0
-1.00308 0.645113 0
1.19982 0.91729 0
-0.923396 0.867275 0
0.707474 -0.338247 0
0.190418 -1.08363 0
0.362892 -1.07387 0
-0.170738 -0.619392 0
0.883846 -1.37092 0
-1.08871 -1.31377 0
0.687361 -0.713969 0
-0.892193 -2.17027 0
0.700803 -1.09189 0
0.320053 -0.342588 0
0.62431 -0.301515 0
-1.01571 -0.651497 0
0.252085 -0.235402 0
-0.286287 0.0324409 0
-0.626853 -1.02372 0
-0.0285894 -0.803392 0
0.29837 -0.109873 0
-0.438285 0.134286 0
0.561329 -0.66675 0
0.625986 -0.210077 0
-0.171005 -0.0390511 0
-0.543215 0.21264 0
-0.176063 -1.1087 0
-0.625277 -1.61758 0
-0.0599531 -0.490245 0
-0.398498 0.266645 0
0.137084 -0.0999392 0
-0.22345 0.128381 0
0.108561 0.178547 0
0.319175 -0.895781 0
-0.429732 -0.750987 0
1.3536 -0.441645 0
-0.433451 0.43082 0
-0.0101861 -1.22505 0
-0.617241 -0.876262 0
-0.296473 -1.07085 0
0.237284 -0.880999 0
-0.153564 -0.648263 0
-0.0847028 -0.711564 0
-0.274331 -0.390104 0
0.192818 -0.426463 0
0.438382 -0.146766 0
-0.606317 -1.18206 0
0.318443 -1.03013 0
0.530782 0.222069 0
-0.95017 -0.698977 0
-0.00740451 -0.990377 0
-0.0251513 0.147991 0
-0.621427 0.0780584 0
0.248024 0.174458 0
0.176599 -0.0538047 0
-0.0764064 -0.120651 0
0.272082 0.10695 0
0.136177 -0.619023 0
-0.932218 -0.363805 0
0.00780196 -0.194751 0
0.616285 0.0232767 0
0.0207539 -0.721233 0
-0.0816386 -0.533298 0
-0.0452896 0.501857 0
-0.00519412 -0.417716 0
0.0493827 -1.12019 0
-0.0885925 -0.195868 0
0.0287416 0.257379 0
0.291359 -0.261001 0
0.0550083 -0.599996 0
-0.199464 -0.550178 0
0.0303947 -0.135823 0
0.197005 0.0331056 0
0.109973 -0.202136 0
-0.0321369 -0.529962 0
-0.0814513 -0.4892 0
0.025361 -0.208012 0
0.110394 0.0368579 0
0.0105151 -0.095941 0
-0.113562 -0.354987 0
-0.0214281 -0.450123 0
0.0997975 -0.255067 0
0.0316771 -0.131001 0
-0.0677439 -0.133328 0
-0.0565709 -0.180326 0
-0.0131301 -0.246911 0
-0.0247103 -0.293589 0
-0.0510684 -0.30043 0
-0.0324972 -0.238904 0
0.0260788 -0.158836 0
-0.304956 0.724478 0
-0.465217 0.0228818 0
0.0879097 0.0296131 0
0.65514 0.394979 0
-1.1268 0.0989904 0
0.407753 0.614275 0
0.364145 0.153185 0
-0.928576 0.0260017 0
-0.127252 -0.296124 0
0.380531 0.753303 0
1.24903 1.04209 0
-0.0808977 0.57645 0
-0.0993212 1.25054 0
0.166939 0.450419 0
-0.63311 0.74901 0
0.304631 -0.0241259 0
-0.166833 -1.46927 0
0.154867 -0.672395 0
-0.367083 -1.04172 0
0.177819 -0.935321 0
0.622991 0.24046 0
-0.398904 -1.70728 0
-0.246015 -0.167558 0
0.661302 -1.23766 0
-0.0328755 -0.434791 0
-0.358991 -1.29174 0
1.3594 -0.578817 0
-0.740641 1.14742 0
-0.0705062 0.388014 0
0.295134 -0.454305 0
0.710609 0.20696 0
-1.09288 -0.406355 0
-0.286242 -0.0797704 0
1.09439 -0.333191 0
-0.725671 -1.03205 0
-0.956506 -0.268723 0
-0.194211 -0.516291 0
0.0434637 -0.294625 0
-0.250084 -1.05479 0
0.197689 0.0900785 0
0.573592 -0.408961 0
-0.182651 -0.190091 0
-0.27655 -0.674101 0
-0.582741 0.0714693 0
-0.716966 -1.0245 0
0.0454598 -1.41759 0
-0.214539 0.115728 0
-0.197247 -0.0224545 0
0.228264 0.476103 0
0.0744374 0.124659 0
0.00449449 -1.23439 0
0.441341 -1.16946 0
-0.638727 0.652354 0
-0.489724 -0.861212 0
0.253094 0.175392 0
0.642636 -0.162402 0
-0.623135 -0.962119 0
-0.236421 -0.754226 0
0.158381 -0.482449 0
-0.104733 -0.207058 0
0.262621 -0.861215 0
0.0390594 -0.673136 0
0.592235 -0.533856 0
-0.0677372 -0.244817 0
-0.0630662 -1.022 0
0.0216049 0.507582 0
-0.381489 0.275768 0
0.479622 -0.980211 0
0.104033 -0.512798 0
-0.280613 0.422586 0
0.291471 -0.475585 0
-0.0616909 -0.711241 0
-0.317361 -0.00428012 0
0.227326 -0.0256821 0
0.24432 -0.587025 0
-0.155022 -0.595384 0
-0.136134 -0.223489 0
0.10883 -0.0961543 0
0.219865 -0.229467 0
0.0878093 -0.535656 0
-0.107964 -0.443216 0
-0.0615213 -0.0792073 0
0.122095 -0.0830906 0
0.199329 -0.296982 0
0.0286478 -0.435822 0
-0.145133 -0.422148 0
-0.0184796 -0.229367 0
0.127691 0.0318917 0
0.0401218 -0.0901151 0
-0.0962175 -0.42332 0
-0.0426887 -0.456692 0
0.0702465 -0.190628 0
0.0270031 -0.0794158 0
-0.049387 -0.162564 0
-0.0265537 -0.252011 0
0.00120439 -0.265286 0
-0.0411335 -0.259346 0
-0.0826548 -0.26479 0
-0.0386561 -0.263313 0
0.0741935 -0.266668 0
-0.754652 -0.568623 0
0.9112 -1.16482 0
0.0884849 -0.317238 0
0.210988 0.0329398 0
0.359482 0.0030396 0
-0.431618 -0.106867 0
-0.413126 0.0485918 0
0.546753 0.820899 0
0.0950005 -0.0774156 0
-0.212085 0.339018 0
-1.22849 1.08545 0
0.953242 -0.162554 0
0.0247285 -0.575906 0
-0.427931 -0.0184496 0
-1.15695 -0.952835 0
-0.258229 0.0440506 0
0.192363 0.172652 0
0.081183 -1.17531 0
-0.0246439 -1.42319 0
0.473561 0.762838 0
-0.461062 0.0237624 0
0.188033 -1.31689 0
-0.24207 -0.902639 0
0.20374 -1.28049 0
-1.11676 -0.798853 0
0.530032 -0.682367 0
0.534411 -0.903847 0
-0.278027 0.174631 0
-0.671271 -1.13518 0
0.0697518 -1.69146 0
0.58277 -1.1179 0
0.831353 0.201036 0
-0.327901 -1.2865 0
-0.0513529 -0.667472 0
0.833485 0.121146 0
0.131937 -1.17853 0
1.04056 -0.819651 0
-0.416594 -0.561633 0
0.193582 -1.69552 0
-0.531291 -0.654681 0
1.12299 -0.683872 0
-0.209215 0.279369 0
0.407507 0.395131 0
0.460665 -0.252818 0
-0.365306 -0.765721 0
-0.504219 -0.631878 0
0.628393 0.300747 0
0.286776 -0.957504 0
0.3051 0.72592 0
-0.560057 -0.697798 0