<?xml version='1.0' encoding='UTF-8'?>
<VTKFile byte_order='LittleEndian' version='0.1' type = 'UnstructuredGrid'>
<UnstructuredGrid>
<FieldData>
<DataArray type='Float64' Name='Time' NumberOfComponents='1' NumberOfTuples='1' format='ascii'>
1.761
</DataArray>
</FieldData>
<Piece NumberOfCells='808' NumberOfPoints='808'>
<Points>
<DataArray NumberOfComponents='3' type='Float64' Name='position' format='ascii'>
0 0 0
0 0.025 0
0 0.05 0
0 0.075 0
0 0.1 0
0 0.125 0
0 0.15 0
0 0.175 0
0.025 0 0
0.05 0 0
0.075 0 0
0.1 0 0
0.125 0 0
0.15 0 0
0.175 0 0
0.2 0 0
0.225 0 0
0.25 0 0
0.275 0 0
0.3 0 0
0.325 0 0
0.347367 -0.00422537 0
0.378307 -0.0304125 0
0.404266 -0.0453776 0
0.429901 -0.0577438 0
0.454644 -0.0683979 0
0.479944 -0.0792382 0
0.505125 -0.0892673 0
0.529843 -0.0987692 0
0.554516 -0.108171 0
0.579221 -0.11745 0
0.60443 -0.126124 0
0.6289 -0.134601 0
0.653423 -0.143041 0
0.678547 -0.151151 0
0.703211 -0.159199 0
0.727908 -0.167261 0
0.752771 -0.17527 0
0.777524 -0.18296 0
0.802552 -0.190186 0
0.827643 -0.197229 0
0.852539 -0.204035 0
0.877558 -0.210435 0
0.902597 -0.216668 0
0.927336 -0.222858 0
0.952024 -0.228785 0
0.976969 -0.234363 0
1.00203 -0.239633 0
1.02704 -0.244529 0
1.05202 -0.249111 0
1.07702 -0.253635 0
1.10196 -0.258235 0
1.12683 -0.262805 0
1.15167 -0.267191 0
1.17651 -0.271403 0
1.20134 -0.275519 0
1.22618 -0.279524 0
1.25106 -0.283321 0
1.27603 -0.286847 0
1.30109 -0.290121 0
1.32618 -0.293181 0
1.35129 -0.296019 0
1.37637 -0.298587 0
1.40145 -0.30084 0
1.4265 -0.302768 0
1.45153 -0.304393 0
1.47653 -0.305748 0
1.5015 -0.306859 0
1.52643 -0.307746 0
1.55134 -0.308427 0
1.57622 -0.308925 0
1.60109 -0.309268 0
1.62595 -0.309488 0
1.65081 -0.309617 0
1.67566 -0.30968 0
1.70053 -0.309702 0
1.72541 -0.309699 0
1.75031 -0.309683 0
1.77522 -0.309663 0
1.80015 -0.309643 0
1.8251 -0.309626 0
1.85007 -0.309612 0
1.87504 -0.309603 0
1.90003 -0.309596 0
1.92502 -0.309591 0
1.95001 -0.309588 0
1.975 -0.309586 0
2 -0.309585 0
2.025 -0.309585 0
2.05 -0.309584 0
2.075 -0.309584 0
2.1 -0.309584 0
2.125 -0.309584 0
2.15 -0.309584 0
2.175 -0.309584 0
2.2 -0.309584 0
2.225 -0.309584 0
2.25 -0.309584 0
2.275 -0.309584 0
2.3 -0.309584 0
2.325 -0.309584 0
2.35 -0.309584 0
2.375 -0.309584 0
2.4 -0.309584 0
2.425 -0.309584 0
2.45 -0.309584 0
2.475 -0.309584 0
2.5 -0.309584 0
0.0248963 0.0243922 0
0.0497911 0.023969 0
0.0746119 0.0239191 0
0.0995902 0.0233582 0
0.124625 0.02327 0
0.149542 0.0225681 0
0.174777 0.0220268 0
0.199558 0.02171 0
0.224561 0.0208232 0
0.249787 0.0204253 0
0.274759 0.0185997 0
0.299879 0.0165364 0
0.326453 0.0121022 0
0.35425 0.00302973 0
0.379496 -0.00977577 0
0.404482 -0.0225705 0
0.429742 -0.0341676 0
0.454853 -0.0447675 0
0.480016 -0.05517 0
0.505041 -0.0649627 0
0.529913 -0.0742274 0
0.554658 -0.0835273 0
0.579346 -0.0925676 0
0.60415 -0.101112 0
0.628775 -0.109817 0
0.653562 -0.118426 0
0.678545 -0.126533 0
0.703257 -0.134499 0
0.727938 -0.142612 0
0.752748 -0.150583 0
0.777583 -0.158128 0
0.802547 -0.165328 0
0.827553 -0.172342 0
0.852492 -0.179157 0
0.877492 -0.185644 0
0.902507 -0.191895 0
0.927364 -0.198015 0
0.952151 -0.203914 0
0.977044 -0.209488 0
1.00203 -0.214721 0
1.02702 -0.219609 0
1.05201 -0.224235 0
1.077 -0.228787 0
1.10194 -0.233345 0
1.12683 -0.237849 0
1.15168 -0.242205 0
1.17652 -0.246414 0
1.20135 -0.250528 0
1.22618 -0.25453 0
1.25107 -0.25834 0
1.27604 -0.261896 0
1.30108 -0.265196 0
1.32618 -0.268262 0
1.35128 -0.271084 0
1.37637 -0.273627 0
1.40145 -0.275855 0
1.4265 -0.277764 0
1.45153 -0.279374 0
1.47652 -0.280717 0
1.50149 -0.281819 0
1.52642 -0.282698 0
1.55133 -0.283373 0
1.57622 -0.283867 0
1.60109 -0.284209 0
1.62595 -0.284429 0
1.65081 -0.284559 0
1.67567 -0.284627 0
1.70053 -0.284655 0
1.72541 -0.284659 0
1.75031 -0.284651 0
1.77522 -0.284638 0
1.80016 -0.284624 0
1.82511 -0.284613 0
1.85007 -0.284603 0
1.87504 -0.284597 0
1.90003 -0.284592 0
1.92502 -0.284589 0
1.95001 -0.284587 0
1.97501 -0.284586 0
2 -0.284585 0
2.025 -0.284584 0
2.05 -0.284584 0
2.075 -0.284584 0
2.1 -0.284584 0
2.125 -0.284584 0
2.15 -0.284584 0
2.175 -0.284584 0
2.2 -0.284584 0
2.225 -0.284584 0
2.25 -0.284584 0
2.275 -0.284584 0
2.3 -0.284584 0
2.325 -0.284584 0
2.35 -0.284584 0
2.375 -0.284584 0
2.4 -0.284584 0
2.425 -0.284584 0
2.45 -0.284584 0
2.475 -0.284584 0
2.5 -0.284584 0
0.0247036 0.0489971 0
0.049605 0.048226 0
0.074578 0.0476682 0
0.0995717 0.0469511 0
0.124581 0.0466174 0
0.14946 0.0461439 0
0.17453 0.0455732 0
0.199444 0.0446756 0
0.224496 0.0428919 0
0.249683 0.041564 0
0.275104 0.0388108 0
0.301073 0.0360565 0
0.327231 0.0307644 0
0.354048 0.0216783 0
0.379912 0.0110151 0
0.404824 0.000199618 0
0.42995 -0.0105652 0
0.455163 -0.0205782 0
0.480068 -0.0303676 0
0.504848 -0.039903 0
0.529753 -0.0495047 0
0.55458 -0.0587765 0
0.579313 -0.0677616 0
0.604151 -0.0763467 0
0.62891 -0.0848749 0
0.653646 -0.0934976 0
0.678461 -0.101741 0
0.703211 -0.109686 0
0.727959 -0.117741 0
0.752781 -0.125699 0
0.77763 -0.133172 0
0.802537 -0.14031 0
0.827496 -0.147342 0
0.852453 -0.154179 0
0.877435 -0.160734 0
0.902444 -0.167054 0
0.927389 -0.173148 0
0.952254 -0.178963 0
0.977127 -0.1845 0
1.00206 -0.189739 0
1.02703 -0.194648 0
1.05201 -0.199326 0
1.07698 -0.203902 0
1.10192 -0.208418 0
1.12682 -0.212852 0
1.15169 -0.217166 0
1.17652 -0.221368 0
1.20135 -0.225485 0
1.22618 -0.229496 0
1.25107 -0.233329 0
1.27604 -0.236922 0
1.30108 -0.240257 0
1.32617 -0.243337 0
1.35128 -0.24615 0
1.37638 -0.248668 0
1.40146 -0.250869 0
1.42651 -0.252755 0
1.45153 -0.254351 0
1.47652 -0.255685 0
1.50149 -0.256781 0
1.52642 -0.257656 0
1.55133 -0.258328 0
1.57622 -0.258818 0
1.60109 -0.259156 0
1.62596 -0.259375 0
1.65081 -0.259506 0
1.67567 -0.259577 0
1.70054 -0.259611 0
1.72542 -0.259621 0
1.75031 -0.259621 0
1.77523 -0.259615 0
1.80016 -0.259608 0
1.82511 -0.259601 0
1.85007 -0.259596 0
1.87505 -0.259591 0
1.90003 -0.259589 0
1.92502 -0.259587 0
1.95001 -0.259586 0
1.97501 -0.259585 0
2 -0.259585 0
2.025 -0.259584 0
2.05 -0.259584 0
2.075 -0.259584 0
2.1 -0.259584 0
2.125 -0.259584 0
2.15 -0.259584 0
2.175 -0.259584 0
2.2 -0.259584 0
2.225 -0.259584 0
2.25 -0.259584 0
2.275 -0.259584 0
2.3 -0.259584 0
2.325 -0.259584 0
2.35 -0.259584 0
2.375 -0.259584 0
2.4 -0.259584 0
2.425 -0.259584 0
2.45 -0.259584 0
2.475 -0.259584 0
2.5 -0.259584 0
0.0246748 0.0738328 0
0.0495889 0.0728205 0
0.0745049 0.0719625 0
0.0994092 0.0709974 0
0.1243 0.070413 0
0.149318 0.069394 0
0.174491 0.0680966 0
0.199649 0.0669797 0
0.224918 0.065122 0
0.250117 0.0631278 0
0.275598 0.0596052 0
0.301672 0.0562195 0
0.327857 0.0504958 0
0.354066 0.0423468 0
0.379954 0.0330163 0
0.405075 0.0232554 0
0.430133 0.0132285 0
0.455253 0.00366164 0
0.480074 -0.00585637 0
0.504925 -0.0156764 0
0.529873 -0.0247504 0
0.554631 -0.0338655 0
0.579249 -0.042966 0
0.604097 -0.0516234 0
0.628961 -0.0599787 0
0.653636 -0.0684848 0
0.678334 -0.0768345 0
0.703142 -0.0848299 0
0.727988 -0.0928006 0
0.752823 -0.100695 0
0.777635 -0.108198 0
0.802504 -0.115376 0
0.827476 -0.122369 0
0.852463 -0.129188 0
0.877416 -0.135816 0
0.902391 -0.1422 0
0.927377 -0.148272 0
0.95231 -0.154015 0
0.9772 -0.159502 0
1.00211 -0.164746 0
1.02706 -0.169693 0
1.05201 -0.17442 0
1.07697 -0.179009 0
1.1019 -0.183479 0
1.12682 -0.187843 0
1.15169 -0.19211 0
1.17653 -0.196298 0
1.20135 -0.200422 0
1.22618 -0.204452 0
1.25107 -0.208316 0
1.27603 -0.211952 0
1.30106 -0.215327 0
1.32615 -0.218427 0
1.35127 -0.221235 0
1.37638 -0.223728 0
1.40146 -0.225897 0
1.42652 -0.227755 0
1.45154 -0.229333 0
1.47653 -0.230658 0
1.50149 -0.231751 0
1.52642 -0.232623 0
1.55133 -0.233291 0
1.57622 -0.233776 0
1.6011 -0.234109 0
1.62596 -0.234325 0
1.65082 -0.234455 0
1.67567 -0.234529 0
1.70054 -0.234567 0
1.72542 -0.234584 0
1.75032 -0.234591 0
1.77523 -0.234592 0
1.80016 -0.234591 0
1.82511 -0.234589 0
1.85007 -0.234588 0
1.87505 -0.234586 0
1.90003 -0.234586 0
1.92502 -0.234585 0
1.95001 -0.234585 0
1.97501 -0.234584 0
2 -0.234584 0
2.025 -0.234584 0
2.05 -0.234584 0
2.075 -0.234584 0
2.1 -0.234584 0
2.125 -0.234584 0
2.15 -0.234584 0
2.175 -0.234584 0
2.2 -0.234584 0
2.225 -0.234584 0
2.25 -0.234584 0
2.275 -0.234584 0
2.3 -0.234584 0
2.325 -0.234584 0
2.35 -0.234584 0
2.375 -0.234584 0
2.4 -0.234584 0
2.425 -0.234584 0
2.45 -0.234584 0
2.475 -0.234584 0
2.5 -0.234584 0
0.0248515 0.0987329 0
0.0496761 0.0977017 0
0.0744474 0.0967858 0
0.0993519 0.0957473 0
0.124436 0.0945748 0
0.149546 0.0930477 0
0.174617 0.0916121 0
0.199825 0.0900519 0
0.225099 0.087853 0
0.250447 0.0858117 0
0.276113 0.0819141 0
0.301871 0.07761 0
0.327887 0.0719171 0
0.353938 0.0640637 0
0.379661 0.055829 0
0.40494 0.0465294 0
0.43014 0.0370989 0
0.455296 0.0276551 0
0.48013 0.0182534 0
0.504974 0.00904342 0
0.529915 -9.33382e-05 0
0.554728 -0.00922928 0
0.579312 -0.0179529 0
0.604018 -0.0266077 0
0.628826 -0.0351845 0
0.653558 -0.0436053 0
0.678306 -0.0519321 0
0.703147 -0.0599216 0
0.728003 -0.0677966 0
0.752804 -0.0756895 0
0.777577 -0.0832934 0
0.802455 -0.0905071 0
0.827485 -0.0974452 0
0.852508 -0.10424 0
0.877426 -0.110891 0
0.902342 -0.117318 0
0.92733 -0.123384 0
0.952321 -0.129073 0
0.977262 -0.134524 0
1.00218 -0.139777 0
1.0271 -0.144761 0
1.05203 -0.149525 0
1.07696 -0.154115 0
1.10189 -0.158538 0
1.12681 -0.162836 0
1.15169 -0.167053 0
1.17652 -0.171225 0
1.20134 -0.175359 0
1.22617 -0.179414 0
1.25106 -0.183315 0
1.27602 -0.186995 0
1.30105 -0.19041 0
1.32614 -0.193534 0
1.35126 -0.196338 0
1.37637 -0.198806 0
1.40147 -0.20094 0
1.42652 -0.202767 0
1.45155 -0.204324 0
1.47653 -0.20564 0
1.50149 -0.206728 0
1.52643 -0.207598 0
1.55134 -0.208262 0
1.57623 -0.208741 0
1.6011 -0.209067 0
1.62596 -0.209278 0
1.65082 -0.209406 0
1.67568 -0.209481 0
1.70054 -0.209523 0
1.72542 -0.209547 0
1.75032 -0.209561 0
1.77523 -0.209569 0
1.80016 -0.209574 0
1.82511 -0.209578 0
1.85007 -0.20958 0
1.87505 -0.209581 0
1.90003 -0.209582 0
1.92502 -0.209583 0
1.95001 -0.209583 0
1.97501 -0.209584 0
2 -0.209584 0
2.025 -0.209584 0
2.05 -0.209584 0
2.075 -0.209584 0
2.1 -0.209584 0
2.125 -0.209584 0
2.15 -0.209584 0
2.175 -0.209584 0
2.2 -0.209584 0
2.225 -0.209584 0
2.25 -0.209584 0
2.275 -0.209584 0
2.3 -0.209584 0
2.325 -0.209584 0
2.35 -0.209584 0
2.375 -0.209584 0
2.4 -0.209584 0
2.425 -0.209584 0
2.45 -0.209584 0
2.475 -0.209584 0
2.5 -0.209584 0
0.0248824 0.123475 0
0.0496303 0.122319 0
0.0743952 0.121516 0
0.0994274 0.120435 0
0.124463 0.119392 0
0.149564 0.118229 0
0.174715 0.116835 0
0.200051 0.114892 0
0.225428 0.111975 0
0.250744 0.109275 0
0.276608 0.105261 0
0.302387 0.100169 0
0.327921 0.0943768 0
0.353915 0.0872466 0
0.379547 0.0793081 0
0.404889 0.0705437 0
0.43022 0.0613912 0
0.45533 0.0521281 0
0.480107 0.0429789 0
0.504911 0.0336915 0
0.529865 0.0247475 0
0.554603 0.0157669 0
0.579215 0.0069885 0
0.604068 -0.00166577 0
0.628865 -0.010324 0
0.653534 -0.0188233 0
0.678318 -0.0270349 0
0.703194 -0.0349399 0
0.728013 -0.0428264 0
0.752735 -0.0507558 0
0.777474 -0.058434 0
0.802403 -0.0656539 0
0.827504 -0.0725371 0
0.852543 -0.0793046 0
0.877422 -0.0859682 0
0.902291 -0.0924011 0
0.927274 -0.0984727 0
0.95232 -0.10414 0
0.977323 -0.109576 0
1.00226 -0.114835 0
1.02715 -0.119834 0
1.05204 -0.124623 0
1.07695 -0.129211 0
1.10188 -0.133594 0
1.12681 -0.13783 0
1.15169 -0.141998 0
1.17651 -0.146155 0
1.20132 -0.150303 0
1.22616 -0.154388 0
1.25105 -0.158326 0
1.27601 -0.162047 0
1.30104 -0.165502 0
1.32612 -0.16865 0
1.35124 -0.171454 0
1.37637 -0.173898 0
1.40147 -0.175997 0
1.42653 -0.177791 0
1.45156 -0.179326 0
1.47654 -0.18063 0
1.5015 -0.181715 0
1.52643 -0.182582 0
1.55134 -0.18324 0
1.57623 -0.183712 0
1.60111 -0.18403 0
1.62597 -0.184234 0
1.65082 -0.184359 0
1.67568 -0.184434 0
1.70054 -0.184481 0
1.72542 -0.184511 0
1.75032 -0.184531 0
1.77523 -0.184546 0
1.80016 -0.184558 0
1.82511 -0.184566 0
1.85007 -0.184572 0
1.87505 -0.184576 0
1.90003 -0.184579 0
1.92502 -0.184581 0
1.95001 -0.184582 0
1.97501 -0.184583 0
2 -0.184583 0
2.025 -0.184584 0
2.05 -0.184584 0
2.075 -0.184584 0
2.1 -0.184584 0
2.125 -0.184584 0
2.15 -0.184584 0
2.175 -0.184584 0
2.2 -0.184584 0
2.225 -0.184584 0
2.25 -0.184584 0
2.275 -0.184584 0
2.3 -0.184584 0
2.325 -0.184584 0
2.35 -0.184584 0
2.375 -0.184584 0
2.4 -0.184584 0
2.425 -0.184584 0
2.45 -0.184584 0
2.475 -0.184584 0
2.5 -0.184584 0
0.0247365 0.148513 0
0.0495552 0.147277 0
0.0744703 0.146384 0
0.0995588 0.144981 0
0.124365 0.144017 0
0.149704 0.142303 0
0.174846 0.140507 0
0.199983 0.138889 0
0.225717 0.13604 0
0.251099 0.132646 0
0.276724 0.1286 0
0.30274 0.123447 0
0.327999 0.11732 0
0.353895 0.11068 0
0.379552 0.102539 0
0.404693 0.0944194 0
0.430125 0.08538 0
0.455196 0.0766349 0
0.479988 0.0673796 0
0.504784 0.0584229 0
0.529912 0.0499549 0
0.554586 0.0406307 0
0.579063 0.0316614 0
0.604078 0.0232139 0
0.628993 0.0146767 0
0.653544 0.00617777 0
0.678258 -0.00212438 0
0.703229 -0.0101689 0
0.728082 -0.0180477 0
0.752696 -0.0258908 0
0.77736 -0.0335608 0
0.802341 -0.0407997 0
0.827514 -0.047671 0
0.852552 -0.0543979 0
0.877382 -0.0610556 0
0.902222 -0.0675093 0
0.92723 -0.0735641 0
0.952337 -0.0792422 0
0.977389 -0.0846847 0
1.00233 -0.0899003 0
1.02719 -0.0949055 0
1.05204 -0.0997251 0
1.07694 -0.104314 0
1.10188 -0.108663 0
1.12681 -0.112842 0
1.15169 -0.116962 0
1.1765 -0.121106 0
1.20131 -0.125274 0
1.22615 -0.129391 0
1.25104 -0.133363 0
1.276 -0.137118 0
1.30102 -0.140607 0
1.3261 -0.143777 0
1.35123 -0.146583 0
1.37636 -0.149005 0
1.40147 -0.151069 0
1.42654 -0.15283 0
1.45157 -0.154342 0
1.47655 -0.155634 0
1.50151 -0.156713 0
1.52644 -0.157575 0
1.55135 -0.158227 0
1.57624 -0.158689 0
1.60111 -0.158998 0
1.62597 -0.159193 0
1.65082 -0.159314 0
1.67568 -0.159389 0
1.70054 -0.159439 0
1.72542 -0.159474 0
1.75031 -0.159502 0
1.77523 -0.159524 0
1.80016 -0.159541 0
1.82511 -0.159554 0
1.85007 -0.159564 0
1.87504 -0.159571 0
1.90003 -0.159576 0
1.92502 -0.159579 0
1.95001 -0.159581 0
1.97501 -0.159582 0
2 -0.159583 0
2.025 -0.159584 0
2.05 -0.159584 0
2.075 -0.159584 0
2.1 -0.159584 0
2.125 -0.159584 0
2.15 -0.159584 0
2.175 -0.159584 0
2.2 -0.159584 0
2.225 -0.159584 0
2.25 -0.159584 0
2.275 -0.159584 0
2.3 -0.159584 0
2.325 -0.159584 0
2.35 -0.159584 0
2.375 -0.159584 0
2.4 -0.159584 0
2.425 -0.159584 0
2.45 -0.159584 0
2.475 -0.159584 0
2.5 -0.159584 0
0.0245812 0.173544 0
0.0495556 0.17232 0
0.0744585 0.171197 0
0.0995611 0.170056 0
0.124386 0.168711 0
0.149561 0.167327 0
0.17489 0.165294 0
0.200045 0.163098 0
0.225963 0.16028 0
0.251023 0.156916 0
0.276858 0.152786 0
0.30279 0.14758 0
0.327995 0.141596 0
0.354067 0.134522 0
0.379676 0.12679 0
0.404392 0.118411 0
0.430043 0.11 0
0.455466 0.100997 0
0.479854 0.0919884 0
0.504992 0.0829626 0
0.530137 0.0738058 0
0.554364 0.0651798 0
0.578853 0.0566025 0
0.604069 0.0480479 0
0.629069 0.0395727 0
0.653461 0.0310411 0
0.67811 0.0225578 0
0.703302 0.0143712 0
0.728244 0.00651733 0
0.752674 -0.00117325 0
0.77721 -0.00878503 0
0.802263 -0.0160717 0
0.827541 -0.0229369 0
0.852573 -0.0296255 0
0.877322 -0.0362658 0
0.902126 -0.0427149 0
0.92719 -0.0487766 0
0.952375 -0.0544815 0
0.977462 -0.0598858 0
1.00238 -0.0650396 0
1.0272 -0.070028 0
1.05202 -0.0748593 0
1.07691 -0.0794553 0
1.10188 -0.0837798 0
1.12683 -0.0879035 0
1.1517 -0.0919744 0
1.17649 -0.0961083 0
1.20129 -0.100301 0
1.22613 -0.104451 0
1.25103 -0.108448 0
1.27599 -0.112226 0
1.301 -0.115738 0
1.32608 -0.118927 0
1.35121 -0.121733 0
1.37636 -0.124132 0
1.40148 -0.126161 0
1.42655 -0.127887 0
1.45158 -0.129373 0
1.47656 -0.13065 0
1.50152 -0.13172 0
1.52645 -0.132574 0
1.55136 -0.133215 0
1.57624 -0.133666 0
1.60111 -0.133964 0
1.62597 -0.134151 0
1.65083 -0.134267 0
1.67568 -0.134342 0
1.70054 -0.134394 0
1.72542 -0.134435 0
1.75031 -0.13447 0
1.77522 -0.134498 0
1.80015 -0.134522 0
1.8251 -0.134541 0
1.85007 -0.134555 0
1.87504 -0.134565 0
1.90003 -0.134572 0
1.92502 -0.134577 0
1.95001 -0.13458 0
1.975 -0.134582 0
2 -0.134583 0
2.025 -0.134583 0
2.05 -0.134584 0
2.075 -0.134584 0
2.1 -0.134584 0
2.125 -0.134584 0
2.15 -0.134584 0
2.175 -0.134584 0
2.2 -0.134584 0
2.225 -0.134584 0
2.25 -0.134584 0
2.275 -0.134584 0
2.3 -0.134584 0
2.325 -0.134584 0
2.35 -0.134584 0
2.375 -0.134584 0
2.4 -0.134584 0
2.425 -0.134584 0
2.45 -0.134584 0
2.475 -0.134584 0
2.5 -0.134584 0
</DataArray>
</Points>
<PointData>
<DataArray NumberOfComponents='1' type='Int32' Name='Particle Type' format='ascii'>
0
0
0
0
0
0
0
0
0
0
0
0
0
0
0
0
0
0
0
0
0
0
1
1
1
1
1
1
1
1
1
1
1
1
1
1
1
1
1
1
1
1
1
1
1
1
1
1
1
1
1
1
1
1
1
1
1
1
1
1
1
1
1
1
1
1
1
1
1
1
1
1
1
1
1
1
1
1
1
1
1
1
1
1
1
1
1
1
1
1
1
1
1
1
1
1
1
1
1
1
1
1
1
1
1
1
1
1
1
1
1
1
1
1
1
1
1
1
1
1
1
1
1
1
1
1
1
1
1
1
1
1
1
1
1
1
1
1
1
1
1
1
1
1
1
1
1
1
1
1
1
1
1
1
1
1
1
1
1
1
1
1
1
1
1
1
1
1
1
1
1
1
1
1
1
1
1
1
1
1
1
1
1
1
1
1
1
1
1
1
1
1
1
1
1
1
1
1
1
1
1
1
1
1
1
1
1
1
1
1
1
1
1
1
1
1
1
1
1
1
1
1
1
1
1
1
1
1
1
1
1
1
1
1
1
1
1
1
1
1
1
1
1
1
1
1
1
1
1
1
1
1
1
1
1
1
1
1
1
1
1
1
1
1
1
1
1
1
1
1
1
1
1
1
1
1
1
1
1
1
1
1
1
1
1
1
1
1
1
1
1
1
1
1
1
1
1
1
1
1
1
1
1
1
1
1
1
1
1
1
1
1
1
1
1
1
1
1
1
1
1
1
1
1
1
1
1
1
1
1
1
1
1
1
1
1
1
1
1
1
1
1
1
1
1
1
1
1
1
1
1
1
1
1
1
1
1
1
1
1
1
1
1
1
1
1
1
1
1
1
1
1
1
1
1
1
1
1
1
1
1
1
1
1
1
1
1
1
1
1
1
1
1
1
1
1
1
1
1
1
1
1
1
1
1
1
1
1
1
1
1
1
1
1
1
1
1
1
1
1
1
1
1
1
1
1
1
1
1
1
1
1
1
1
1
1
1
1
1
1
1
1
1
1
1
1
1
1
1
1
1
1
1
1
1
1
1
1
1
1
1
1
1
1
1
1
1
1
1
1
1
1
1
1
1
1
1
1
1
1
1
1
1
1
1
1
1
1
1
1
1
1
1
1
1
1
1
1
1
1
1
1
1
1
1
1
1
1
1
1
1
1
1
1
1
1
1
1
1
1
1
1
1
1
1
1
1
1
1
1
1
1
1
1
1
1
1
1
1
1
1
1
1
1
1
1
1
1
1
1
1
1
1
1
1
1
1
1
1
1
1
1
1
1
1
1
1
1
1
1
1
1
1
1
1
1
1
1
1
1
1
1
1
1
1
1
1
1
1
1
1
1
1
1
1
1
1
1
1
1
1
1
1
1
1
1
1
1
1
1
1
1
1
1
1
1
1
1
1
1
1
1
1
1
1
1
1
1
1
1
1
1
1
1
1
1
1
1
1
1
1
1
1
1
1
1
1
1
1
1
1
1
1
1
1
1
1
1
1
1
1
1
1
1
1
1
1
1
1
1
1
1
1
1
1
1
1
1
1
1
1
1
1
1
1
1
1
1
1
1
1
1
1
1
1
1
1
1
1
1
1
1
1
1
1
1
1
1
1
1
1
1
1
1
1
1
1
1
1
1
1
1
1
1
1
1
1
1
1
1
1
1
1
1
1
1
1
1
1
1
1
1
1
1
1
1
1
1
1
1
1
1
1
1
1
1
1
1
1
1
1
1
1
1
1
1
1
1
1
1
1
1
1
1
1
1
1
1
1
1
1
1
1
1
1
1
1
1
1
1
1
1
1
1
1
1
1
1
1
1
1
1
1
1
1
1
1
1
</DataArray>
<DataArray NumberOfComponents='3' type='Float64' Name='Velocity' format='ascii'>
0 0 0
0 0 0
0 0 0
0 0 0
0 0 0
0 0 0
0 0 0
0 0 0
0 0 0
0 0 0
0 0 0
0 0 0
0 0 0
0 0 0
0 0 0
0 0 0
0 0 0
0 0 0
0 0 0
0 0 0
0 0 0
-0.0221556 -0.0461852 0
-0.00630933 -0.0273001 0
-0.0136902 -0.0339007 0
0.00473784 -0.0630251 0
0.00417194 -0.0476201 0
-0.0119547 -0.0443898 0
0.00314082 -0.0585289 0
0.00692862 -0.0631857 0
0.00940025 -0.0618157 0
-0.00478682 -0.0734054 0
-0.00038182 -0.0902437 0
0.0190045 -0.0911868 0
0.000459841 -0.0977857 0
0.000283233 -0.103155 0
0.00982708 -0.101609 0
0.00227234 -0.101393 0
0.00339535 -0.105401 0
0.000401397 -0.11901 0
-0.00716269 -0.130112 0
-0.00252627 -0.136624 0
-0.000431924 -0.148341 0
-0.003472 -0.157933 0
0.00307607 -0.159271 0
0.0100307 -0.162927 0
0.00476757 -0.172484 0
-0.00287721 -0.182318 0
-0.00331975 -0.192943 0
-0.00129585 -0.2044 0
-0.00112629 -0.209839 0
-0.000336812 -0.208488 0
0.00218039 -0.206931 0
0.00401993 -0.21058 0
0.00432389 -0.216955 0
0.00446741 -0.221603 0
0.00475364 -0.224996 0
0.00393031 -0.230316 0
0.0014969 -0.238247 0
-0.00140097 -0.246605 0
-0.00333374 -0.253678 0
-0.003896 -0.260059 0
-0.00359987 -0.267381 0
-0.00304411 -0.276365 0
-0.00243274 -0.286363 0
-0.00167263 -0.296244 0
-0.000671443 -0.305297 0
0.000512957 -0.313425 0
0.00172207 -0.320814 0
0.00280773 -0.327584 0
0.00369324 -0.33368 0
0.00436432 -0.338955 0
0.00482875 -0.343285 0
0.00508685 -0.346643 0
0.00512854 -0.349096 0
0.00494883 -0.350774 0
0.00456446 -0.35183 0
0.00401974 -0.352419 0
0.00337943 -0.352681 0
0.00271394 -0.352734 0
0.00208454 -0.352668 0
0.00153384 -0.352549 0
0.00108317 -0.352419 0
0.000735481 -0.352301 0
0.000481059 -0.352205 0
0.000303623 -0.352134 0
0.000185223 -0.352084 0
0.000109381 -0.352051 0
6.26164e-05 -0.35203 0
3.47939e-05 -0.352017 0
1.87893e-05 -0.352009 0
9.87192e-06 -0.352005 0
5.05157e-06 -0.352002 0
2.52004e-06 -0.352001 0
1.2267e-06 -0.352001 0
5.83157e-07 -0.352 0
2.70952e-07 -0.352 0
1.23136e-07 -0.352 0
5.47723e-08 -0.352 0
2.38621e-08 -0.352 0
1.01881e-08 -0.352 0
4.26556e-09 -0.352 0
1.75212e-09 -0.352 0
7.06441e-10 -0.352 0
2.79722e-10 -0.352 0
1.09042e-10 -0.352 0
4.19414e-11 -0.352 0
1.65065e-11 -0.352 0
7.67386e-12 -0.352 0
0.0036779 0.00526072 0
0.00619975 0.0153641 0
0.0060519 0.0210367 0
0.00112214 0.0250031 0
0.00595056 0.0150297 0
-0.00153242 0.04441 0
-0.00240468 0.0157154 0
0.00318399 0.03122 0
-0.0112775 0.0117211 0
0.00810563 0.0197728 0
0.00356606 0.0345716 0
-0.0170481 0.00946889 0
0.00136994 0.0189194 0
-0.0179819 -0.0321983 0
-0.00226715 -0.0202677 0
-0.00394967 -0.0223472 0
-0.00531876 -0.0447492 0
-0.00772176 -0.043803 0
-0.00873072 -0.0499551 0
-0.00283801 -0.0696298 0
0.00216117 -0.0745509 0
0.00780595 -0.0719862 0
0.00630688 -0.0849149 0
0.00713 -0.0855402 0
0.00705247 -0.0793876 0
-0.00262532 -0.0920987 0
0.00108393 -0.10405 0
0.0087161 -0.101955 0
0.00547762 -0.10035 0
0.00301489 -0.110959 0
0.000372273 -0.123637 0
-0.00322265 -0.131623 0
-0.00180969 -0.137025 0
-0.00125975 -0.145534 0
-0.00289613 -0.154933 0
0.000364612 -0.159788 0
0.0051382 -0.16439 0
0.00412027 -0.172785 0
0.000160233 -0.183327 0
-0.00141025 -0.194173 0
-0.00120237 -0.203912 0
-0.000961077 -0.208614 0
-2.97053e-05 -0.208764 0
0.00182739 -0.209022 0
0.00340581 -0.212404 0
0.00416773 -0.217581 0
0.00460759 -0.221708 0
0.00472704 -0.225093 0
0.00378722 -0.230102 0
0.00155299 -0.237438 0
-0.00112015 -0.245563 0
-0.00308841 -0.253066 0
-0.00387911 -0.260198 0
-0.0037611 -0.268082 0
-0.00320109 -0.277237 0
-0.00246053 -0.287139 0
-0.00158046 -0.296855 0
-0.000548667 -0.305776 0
0.00058581 -0.313813 0
0.0017194 -0.321126 0
0.00275107 -0.327828 0
0.00361867 -0.33386 0
0.00429684 -0.339074 0
0.00477555 -0.34334 0
0.00504403 -0.346625 0
0.00509086 -0.349 0
0.00491515 -0.350603 0
0.00453776 -0.351601 0
0.00400414 -0.352158 0
0.00337724 -0.352415 0
0.00272442 -0.352487 0
0.00210441 -0.352455 0
0.00155867 -0.352377 0
0.0011088 -0.352288 0
0.000758846 -0.352207 0
0.000500485 -0.35214 0
0.000318616 -0.352091 0
0.000196088 -0.352057 0
0.000116834 -0.352034 0
6.74852e-05 -0.35202 0
3.78365e-05 -0.352011 0
2.06152e-05 -0.352006 0
1.09272e-05 -0.352003 0
5.64046e-06 -0.352002 0
2.83805e-06 -0.352001 0
1.39319e-06 -0.352 0
6.67803e-07 -0.352 0
3.12805e-07 -0.352 0
1.43286e-07 -0.352 0
6.4231e-08 -0.352 0
2.81952e-08 -0.352 0
1.21273e-08 -0.352 0
5.11409e-09 -0.352 0
2.1157e-09 -0.352 0
8.58873e-10 -0.352 0
3.42514e-10 -0.352 0
1.3422e-10 -0.352 0
5.20374e-11 -0.352 0
2.06424e-11 -0.352 0
9.73738e-12 -0.352 0
0.0012817 -0.00542152 0
0.00186557 -0.00343554 0
0.00422688 -0.0150452 0
-0.00105637 -0.00829185 0
-0.00316194 -0.0262626 0
-0.00301353 -0.0137032 0
-0.000354179 -0.0318938 0
0.00231855 -0.00247035 0
-0.00876955 -0.021877 0
0.00414736 -0.0142678 0
0.00271849 -0.00955794 0
-0.00459232 -0.0351162 0
0.00157713 -0.0129779 0
-0.00656375 -0.0446125 0
-0.0013105 -0.045973 0
0.000939662 -0.0391577 0
-0.00778735 -0.0527584 0
-0.00343147 -0.0633633 0
0.00557889 -0.0666591 0
0.00260076 -0.0585192 0
-0.000543013 -0.059349 0
0.00246285 -0.0693789 0
0.00142571 -0.080179 0
0.000923324 -0.0880888 0
0.00440457 -0.083372 0
0.00318504 -0.0874678 0
0.00393929 -0.101503 0
0.00612606 -0.103706 0
0.00413488 -0.101762 0
0.00226332 -0.11289 0
0.00133909 -0.127639 0
-0.000523328 -0.132412 0
-0.00124454 -0.135704 0
-0.00153104 -0.14321 0
-0.00271648 -0.151391 0
-0.00186985 -0.158181 0
0.00141209 -0.166394 0
0.00311854 -0.175312 0
0.00193282 -0.184037 0
0.000214084 -0.194169 0
-0.000555356 -0.20282 0
-0.000461266 -0.207272 0
0.000326518 -0.209243 0
0.0015834 -0.211283 0
0.0028753 -0.214571 0
0.00394945 -0.218549 0
0.00473215 -0.221833 0
0.00487932 -0.224897 0
0.00387246 -0.229505 0
0.00169321 -0.236282 0
-0.000907525 -0.244186 0
-0.00296236 -0.252111 0
-0.00396829 -0.260059 0
-0.00400959 -0.268672 0
-0.003436 -0.278174 0
-0.00255337 -0.288055 0
-0.00152604 -0.297555 0
-0.000429045 -0.306233 0
0.000681464 -0.314088 0
0.00174874 -0.321304 0
0.00272294 -0.327971 0
0.00356579 -0.333999 0
0.00424774 -0.339201 0
0.00474236 -0.343428 0
0.00502525 -0.346645 0
0.00507999 -0.348934 0
0.00490739 -0.350453 0
0.0045321 -0.351387 0
0.00400208 -0.351909 0
0.00338048 -0.352162 0
0.00273341 -0.352254 0
0.00211803 -0.352257 0
0.00157485 -0.35222 0
0.00112531 -0.35217 0
0.000773936 -0.352122 0
0.000513114 -0.352083 0
0.00032844 -0.352054 0
0.000203266 -0.352034 0
0.000121797 -0.35202 0
7.07511e-05 -0.352012 0
3.98914e-05 -0.352007 0
2.18558e-05 -0.352004 0
1.16482e-05 -0.352002 0
6.04491e-06 -0.352001 0
3.05748e-06 -0.352 0
1.50856e-06 -0.352 0
7.26682e-07 -0.352 0
3.42019e-07 -0.352 0
1.57398e-07 -0.352 0
7.08746e-08 -0.352 0
3.12467e-08 -0.352 0
1.34966e-08 -0.352 0
5.71458e-09 -0.352 0
2.37327e-09 -0.352 0
9.67165e-10 -0.352 0
3.87182e-10 -0.352 0
1.52333e-10 -0.352 0
5.91511e-11 -0.352 0
2.36125e-11 -0.352 0
1.12052e-11 -0.352 0
0.00324985 0.00192509 0
0.00133561 0.00121906 0
0.00162149 -0.00130363 0
0.00158051 0.0147007 0
0.00233608 -0.000108991 0
0.000409692 0.0178621 0
-2.43801e-05 -0.00146247 0
0.000763478 0.016968 0
-0.00324185 0.00541067 0
-0.00119449 0.00720415 0
-0.000320191 -0.000412446 0
0.00132436 -0.0330191 0
0.00219019 0.00310289 0
-0.00340537 -0.0187334 0
-0.00222202 -0.0378951 0
0.00113478 -0.0390905 0
-0.00604006 -0.0486263 0
-0.00144722 -0.05853 0
0.00363868 -0.0480167 0
-0.00197621 -0.0557193 0
3.27849e-05 -0.0721336 0
0.00766942 -0.0650386 0
0.00436298 -0.0735066 0
-0.00160904 -0.0901838 0
0.0040276 -0.0916532 0
0.00827032 -0.0881441 0
0.00500491 -0.0978888 0
0.00179644 -0.10461 0
0.00104527 -0.104944 0
0.00226516 -0.113498 0
0.00272107 -0.125451 0
2.01204e-05 -0.131946 0
-0.00234606 -0.136706 0
-0.00177115 -0.141638 0
-0.0014534 -0.148188 0
-0.00211901 -0.157128 0
-0.000890631 -0.168118 0
0.00146639 -0.177725 0
0.00205975 -0.18509 0
0.00103166 -0.193483 0
0.000271724 -0.201474 0
0.000398226 -0.20626 0
0.000895771 -0.210087 0
0.00153999 -0.213658 0
0.00251493 -0.216915 0
0.00377666 -0.219784 0
0.00484117 -0.222029 0
0.00504966 -0.224473 0
0.0039917 -0.228567 0
0.00183093 -0.234843 0
-0.00072802 -0.242586 0
-0.00286272 -0.250939 0
-0.00406767 -0.259743 0
-0.00427582 -0.26921 0
-0.00371746 -0.279214 0
-0.00271621 -0.289154 0
-0.0015406 -0.298409 0
-0.000353849 -0.306751 0
0.000765623 -0.314341 0
0.00179197 -0.321429 0
0.00272036 -0.328083 0
0.00353935 -0.334148 0
0.00422142 -0.339375 0
0.0047286 -0.343578 0
0.00502457 -0.346721 0
0.00508704 -0.348908 0
0.00491676 -0.350326 0
0.00454096 -0.351183 0
0.00401007 -0.351663 0
0.00338838 -0.351908 0
0.00274191 -0.352019 0
0.00212724 -0.352058 0
0.00158433 -0.352062 0
0.00113436 -0.352052 0
0.000781952 -0.352039 0
0.000519724 -0.352027 0
0.000333551 -0.352018 0
0.000206993 -0.352011 0
0.000124374 -0.352007 0
7.2449e-05 -0.352004 0
4.09616e-05 -0.352002 0
2.25033e-05 -0.352001 0
1.20253e-05 -0.352001 0
6.25685e-06 -0.352 0
3.17268e-06 -0.352 0
1.56923e-06 -0.352 0
7.577e-07 -0.352 0
3.57433e-07 -0.352 0
1.64853e-07 -0.352 0
7.4389e-08 -0.352 0
3.28633e-08 -0.352 0
1.42223e-08 -0.352 0
6.03343e-09 -0.352 0
2.51035e-09 -0.352 0
1.02479e-09 -0.352 0
4.10857e-10 -0.352 0
1.61905e-10 -0.352 0
6.29939e-11 -0.352 0
2.5139e-11 -0.352 0
1.20148e-11 -0.352 0
0.000941331 0.0124087 0
-0.00417275 0.0178722 0
-0.00220237 0.0238827 0
0.00380046 0.0427207 0
0.00137091 0.0351929 0
-0.000521819 0.0513599 0
0.00137859 0.036229 0
0.00233494 0.0430759 0
-0.00129662 0.0253704 0
-0.00617027 0.0238929 0
-0.0029937 0.0263326 0
0.00310321 0.00214151 0
0.00558416 0.0054716 0
-0.00346108 -0.00207743 0
0.00477499 -0.0251401 0
0.00133867 -0.0223265 0
-0.00594129 -0.0392983 0
-0.00176437 -0.0459376 0
0.00259105 -0.0539699 0
-0.000516515 -0.0653027 0
-0.00117651 -0.0622334 0
0.00802612 -0.0743246 0
0.0107202 -0.0831456 0
0.00528568 -0.0828028 0
0.00459379 -0.0886309 0
0.00549823 -0.0914827 0
0.00273341 -0.0982319 0
0.000464891 -0.107421 0
0.00129304 -0.106951 0
0.00350664 -0.110452 0
0.0030042 -0.121513 0
-0.00175887 -0.132008 0
-0.00470637 -0.138031 0
-0.00198616 -0.141712 0
0.000604038 -0.14705 0
-0.000740429 -0.156372 0
-0.00200332 -0.169221 0
-0.000722935 -0.179358 0
0.000796856 -0.185464 0
0.00115058 -0.192679 0
0.0012212 -0.200264 0
0.00148424 -0.205849 0
0.00153857 -0.211229 0
0.00160888 -0.215995 0
0.0023695 -0.219245 0
0.00378135 -0.221123 0
0.00498652 -0.222231 0
0.0051359 -0.223869 0
0.00398822 -0.227418 0
0.0018812 -0.233295 0
-0.000567564 -0.240936 0
-0.00272419 -0.24969 0
-0.00410798 -0.259329 0
-0.00450562 -0.269707 0
-0.00401189 -0.280313 0
-0.00293814 -0.290381 0
-0.00163181 -0.299383 0
-0.00034088 -0.307331 0
0.000819996 -0.314603 0
0.00183838 -0.321542 0
0.00274218 -0.328196 0
0.00354397 -0.334325 0
0.00422285 -0.339596 0
0.00473609 -0.343783 0
0.00504009 -0.346847 0
0.00510779 -0.348919 0
0.00493861 -0.350223 0
0.00456063 -0.350991 0
0.00402585 -0.351422 0
0.00339993 -0.351656 0
0.00274976 -0.351784 0
0.00213224 -0.351858 0
0.00158734 -0.351904 0
0.00113609 -0.351935 0
0.000782895 -0.351956 0
0.00052022 -0.351971 0
0.000333801 -0.351982 0
0.000207115 -0.351989 0
0.000124431 -0.351993 0
7.24747e-05 -0.351996 0
4.09728e-05 -0.351998 0
2.2508e-05 -0.351999 0
1.20272e-05 -0.351999 0
6.25756e-06 -0.352 0
3.17293e-06 -0.352 0
1.56932e-06 -0.352 0
7.57725e-07 -0.352 0
3.57439e-07 -0.352 0
1.64854e-07 -0.352 0
7.43882e-08 -0.352 0
3.28626e-08 -0.352 0
1.42221e-08 -0.352 0
6.03326e-09 -0.352 0
2.51008e-09 -0.352 0
1.02481e-09 -0.352 0
4.10829e-10 -0.352 0
1.61781e-10 -0.352 0
6.30116e-11 -0.352 0
2.51654e-11 -0.352 0
1.19884e-11 -0.352 0
0.00250146 -0.0120377 0
-0.000500292 -0.0221418 0
0.00614587 -0.036392 0
0.00830639 -0.0334651 0
-0.00434057 -0.057999 0
-0.00627204 -0.0368008 0
0.00105644 -0.046115 0
0.00311174 -0.0348708 0
0.0129605 -0.0491773 0
-0.00711425 -0.0530974 0
-0.0118629 -0.0265598 0
-0.00398003 -0.0390295 0
-0.000653526 -0.0349197 0
-0.0084241 -0.0494782 0
-0.00432587 -0.0350755 0
-0.00291471 -0.0439342 0
-0.00711172 -0.0356882 0
0.0046275 -0.0549261 0
0.00694044 -0.0510431 0
0.00246937 -0.0614607 0
0.00125363 -0.0691524 0
0.00906445 -0.0730157 0
0.00503926 -0.0790342 0
0.00116958 -0.0787423 0
0.00598103 -0.0826448 0
0.00548084 -0.0922749 0