<?xml version='1.0' encoding='UTF-8'?>
<VTKFile byte_order='LittleEndian' version='0.1' type = 'UnstructuredGrid'>
<UnstructuredGrid>
<FieldData>
<DataArray type='Float64' Name='Time' NumberOfComponents='1' NumberOfTuples='1' format='ascii'>
1
</DataArray>
</FieldData>
<Piece NumberOfCells='808' NumberOfPoints='808'>
<Points>
<DataArray NumberOfComponents='3' type='Float64' Name='position' format='ascii'>
0 0 0
0 0.025 0
0 0.05 0
0 0.075 0
0 0.1 0
0 0.125 0
0 0.15 0
0 0.175 0
0.025 0 0
0.05 0 0
0.075 0 0
0.1 0 0
0.125 0 0
0.15 0 0
0.175 0 0
0.2 0 0
0.225 0 0
0.25 0 0
0.275 0 0
0.3 0 0
0.325 0 0
0.35 0 0
0.377611 -0.0159704 0
0.40262 -0.0244262 0
0.427616 -0.0311372 0
0.452508 -0.036961 0
0.477394 -0.0421832 0
0.502204 -0.0470676 0
0.52705 -0.0516605 0
0.551939 -0.0560697 0
0.576778 -0.0603535 0
0.601683 -0.0644482 0
0.626646 -0.0684358 0
0.651611 -0.0722944 0
0.676633 -0.0759396 0
0.701702 -0.0794072 0
0.726748 -0.0826718 0
0.751757 -0.085606 0
0.776748 -0.0881718 0
0.801712 -0.0904341 0
0.826629 -0.0924244 0
0.851502 -0.0941181 0
0.876354 -0.0955112 0
0.901207 -0.0966491 0
0.926068 -0.0975849 0
0.950936 -0.0983421 0
0.975805 -0.0989203 0
1.00067 -0.099322 0
1.02554 -0.0995684 0
1.05042 -0.0996968 0
1.0753 -0.0997484 0
1.10021 -0.0997578 0
1.12514 -0.0997489 0
1.15009 -0.0997351 0
1.17505 -0.0997228 0
1.20003 -0.0997137 0
1.22502 -0.0997077 0
1.25001 -0.0997042 0
1.275 -0.0997022 0
1.3 -0.0997012 0
1.325 -0.0997006 0
1.35 -0.0997004 0
1.375 -0.0997003 0
1.4 -0.0997002 0
1.425 -0.0997002 0
1.45 -0.0997002 0
1.475 -0.0997002 0
1.5 -0.0997002 0
1.525 -0.0997002 0
1.55 -0.0997002 0
1.575 -0.0997002 0
1.6 -0.0997002 0
1.625 -0.0997002 0
1.65 -0.0997002 0
1.675 -0.0997002 0
1.7 -0.0997002 0
1.725 -0.0997002 0
1.75 -0.0997002 0
1.775 -0.0997002 0
1.8 -0.0997002 0
1.825 -0.0997002 0
1.85 -0.0997002 0
1.875 -0.0997002 0
1.9 -0.0997002 0
1.925 -0.0997002 0
1.95 -0.0997002 0
1.975 -0.0997002 0
2 -0.0997002 0
2.025 -0.0997002 0
2.05 -0.0997002 0
2.075 -0.0997002 0
2.1 -0.0997002 0
2.125 -0.0997002 0
2.15 -0.0997002 0
2.175 -0.0997002 0
2.2 -0.0997002 0
2.225 -0.0997002 0
2.25 -0.0997002 0
2.275 -0.0997002 0
2.3 -0.0997002 0
2.325 -0.0997002 0
2.35 -0.0997002 0
2.375 -0.0997002 0
2.4 -0.0997002 0
2.425 -0.0997002 0
2.45 -0.0997002 0
2.475 -0.0997002 0
2.5 -0.0997002 0
0.0248386 0.0244332 0
0.0497674 0.0240798 0
0.0747252 0.0237446 0
0.0996915 0.0234742 0
0.12469 0.0231574 0
0.14969 0.0228818 0
0.174684 0.0225566 0
0.199739 0.0221727 0
0.224786 0.0218478 0
0.24982 0.0213655 0
0.274932 0.0206838 0
0.300154 0.0197234 0
0.325637 0.0178726 0
0.352004 0.0138686 0
0.377885 0.00629201 0
0.402731 -0.000583296 0
0.427665 -0.00670998 0
0.452541 -0.012282 0
0.47741 -0.0174251 0
0.502249 -0.0222357 0
0.527105 -0.026794 0
0.551976 -0.0311655 0
0.576828 -0.0354032 0
0.601712 -0.0394986 0
0.626638 -0.043487 0
0.651599 -0.0473502 0
0.676621 -0.0510203 0
0.701683 -0.0544813 0
0.726734 -0.057702 0
0.751753 -0.0606056 0
0.776744 -0.0631651 0
0.801702 -0.0654178 0
0.826617 -0.0673871 0
0.851494 -0.0690634 0
0.876353 -0.0704514 0
0.90121 -0.0715905 0
0.926073 -0.0725254 0
0.95094 -0.0732784 0
0.975809 -0.0738532 0
1.00068 -0.0742556 0
1.02555 -0.0745078 0
1.05042 -0.0746457 0
1.07531 -0.0747083 0
1.10022 -0.0747285 0
1.12514 -0.0747287 0
1.15009 -0.074722 0
1.17505 -0.0747147 0
1.20003 -0.074709 0
1.22502 -0.0747051 0
1.25001 -0.0747028 0
1.275 -0.0747015 0
1.3 -0.0747008 0
1.325 -0.0747005 0
1.35 -0.0747003 0
1.375 -0.0747003 0
1.4 -0.0747002 0
1.425 -0.0747002 0
1.45 -0.0747002 0
1.475 -0.0747002 0
1.5 -0.0747002 0
1.525 -0.0747002 0
1.55 -0.0747002 0
1.575 -0.0747002 0
1.6 -0.0747002 0
1.625 -0.0747002 0
1.65 -0.0747002 0
1.675 -0.0747002 0
1.7 -0.0747002 0
1.725 -0.0747002 0
1.75 -0.0747002 0
1.775 -0.0747002 0
1.8 -0.0747002 0
1.825 -0.0747002 0
1.85 -0.0747002 0
1.875 -0.0747002 0
1.9 -0.0747002 0
1.925 -0.0747002 0
1.95 -0.0747002 0
1.975 -0.0747002 0
2 -0.0747002 0
2.025 -0.0747002 0
2.05 -0.0747002 0
2.075 -0.0747002 0
2.1 -0.0747002 0
2.125 -0.0747002 0
2.15 -0.0747002 0
2.175 -0.0747002 0
2.2 -0.0747002 0
2.225 -0.0747002 0
2.25 -0.0747002 0
2.275 -0.0747002 0
2.3 -0.0747002 0
2.325 -0.0747002 0
2.35 -0.0747002 0
2.375 -0.0747002 0
2.4 -0.0747002 0
2.425 -0.0747002 0
2.45 -0.0747002 0
2.475 -0.0747002 0
2.5 -0.0747002 0
0.0247715 0.0490934 0
0.0496653 0.0484895 0
0.0746001 0.0479176 0
0.0995564 0.047455 0
0.124556 0.0469222 0
0.149574 0.0464854 0
0.17458 0.0459932 0
0.199645 0.0453531 0
0.224732 0.0447501 0
0.249854 0.0438911 0
0.275094 0.0427382 0
0.300505 0.041202 0
0.326154 0.0386671 0
0.352125 0.0346052 0
0.37777 0.0288906 0
0.402809 0.0231206 0
0.427727 0.0175318 0
0.452599 0.0122569 0
0.477452 0.00731673 0
0.50229 0.00262155 0
0.527142 -0.00188399 0
0.552001 -0.00621912 0
0.576856 -0.0104226 0
0.601728 -0.0145111 0
0.626633 -0.0185012 0
0.651588 -0.0223767 0
0.676606 -0.0260701 0
0.701664 -0.0295289 0
0.72672 -0.032719 0
0.751749 -0.0355994 0
0.776744 -0.0381542 0
0.801698 -0.0404024 0
0.82661 -0.0423592 0
0.851489 -0.0440234 0
0.876351 -0.0454059 0
0.901212 -0.0465427 0
0.926077 -0.0474736 0
0.950945 -0.0482206 0
0.975814 -0.0487908 0
1.00068 -0.0491933 0
1.02555 -0.049451 0
1.05043 -0.0495982 0
1.07532 -0.0496716 0
1.10022 -0.049702 0
1.12515 -0.0497108 0
1.15009 -0.0497106 0
1.17506 -0.0497078 0
1.20003 -0.049705 0
1.22502 -0.049703 0
1.25001 -0.0497017 0
1.275 -0.049701 0
1.3 -0.0497006 0
1.325 -0.0497004 0
1.35 -0.0497003 0
1.375 -0.0497002 0
1.4 -0.0497002 0
1.425 -0.0497002 0
1.45 -0.0497002 0
1.475 -0.0497002 0
1.5 -0.0497002 0
1.525 -0.0497002 0
1.55 -0.0497002 0
1.575 -0.0497002 0
1.6 -0.0497002 0
1.625 -0.0497002 0
1.65 -0.0497002 0
1.675 -0.0497002 0
1.7 -0.0497002 0
1.725 -0.0497002 0
1.75 -0.0497002 0
1.775 -0.0497002 0
1.8 -0.0497002 0
1.825 -0.0497002 0
1.85 -0.0497002 0
1.875 -0.0497002 0
1.9 -0.0497002 0
1.925 -0.0497002 0
1.95 -0.0497002 0
1.975 -0.0497002 0
2 -0.0497002 0
2.025 -0.0497002 0
2.05 -0.0497002 0
2.075 -0.0497002 0
2.1 -0.0497002 0
2.125 -0.0497002 0
2.15 -0.0497002 0
2.175 -0.0497002 0
2.2 -0.0497002 0
2.225 -0.0497002 0
2.25 -0.0497002 0
2.275 -0.0497002 0
2.3 -0.0497002 0
2.325 -0.0497002 0
2.35 -0.0497002 0
2.375 -0.0497002 0
2.4 -0.0497002 0
2.425 -0.0497002 0
2.45 -0.0497002 0
2.475 -0.0497002 0
2.5 -0.0497002 0
0.024766 0.0737905 0
0.0496353 0.0729664 0
0.0745545 0.0721395 0
0.0995057 0.0715389 0
0.124494 0.0708608 0
0.149513 0.0702567 0
0.174561 0.0696222 0
0.199653 0.0687808 0
0.224784 0.0679079 0
0.25 0.0667053 0
0.275313 0.0651514 0
0.300761 0.063236 0
0.326389 0.0604381 0
0.352081 0.0565672 0
0.377578 0.0518594 0
0.402742 0.0467986 0
0.427713 0.0417138 0
0.452611 0.0367867 0
0.477467 0.0320412 0
0.502315 0.02748 0
0.527168 0.0230457 0
0.552015 0.0187407 0
0.576864 0.0145517 0
0.601726 0.0104694 0
0.626622 0.0064843 0
0.651578 0.00260237 0
0.676594 -0.00110673 0
0.701647 -0.00456728 0
0.726703 -0.00774193 0
0.75174 -0.0106084 0
0.776741 -0.0131574 0
0.801695 -0.0153997 0
0.826605 -0.017346 0
0.851484 -0.0189997 0
0.876348 -0.0203752 0
0.901212 -0.0215066 0
0.92608 -0.0224307 0
0.95095 -0.0231698 0
0.97582 -0.0237338 0
1.00069 -0.024135 0
1.02556 -0.0243969 0
1.05043 -0.0245525 0
1.07532 -0.024636 0
1.10023 -0.0246763 0
1.12515 -0.0246935 0
1.1501 -0.0246996 0
1.17506 -0.0247012 0
1.20003 -0.0247013 0
1.22502 -0.0247009 0
1.25001 -0.0247006 0
1.27501 -0.0247004 0
1.3 -0.0247003 0
1.325 -0.0247003 0
1.35 -0.0247002 0
1.375 -0.0247002 0
1.4 -0.0247002 0
1.425 -0.0247002 0
1.45 -0.0247002 0
1.475 -0.0247002 0
1.5 -0.0247002 0
1.525 -0.0247002 0
1.55 -0.0247002 0
1.575 -0.0247002 0
1.6 -0.0247002 0
1.625 -0.0247002 0
1.65 -0.0247002 0
1.675 -0.0247002 0
1.7 -0.0247002 0
1.725 -0.0247002 0
1.75 -0.0247002 0
1.775 -0.0247002 0
1.8 -0.0247002 0
1.825 -0.0247002 0
1.85 -0.0247002 0
1.875 -0.0247002 0
1.9 -0.0247002 0
1.925 -0.0247002 0
1.95 -0.0247002 0
1.975 -0.0247002 0
2 -0.0247002 0
2.025 -0.0247002 0
2.05 -0.0247002 0
2.075 -0.0247002 0
2.1 -0.0247002 0
2.125 -0.0247002 0
2.15 -0.0247002 0
2.175 -0.0247002 0
2.2 -0.0247002 0
2.225 -0.0247002 0
2.25 -0.0247002 0
2.275 -0.0247002 0
2.3 -0.0247002 0
2.325 -0.0247002 0
2.35 -0.0247002 0
2.375 -0.0247002 0
2.4 -0.0247002 0
2.425 -0.0247002 0
2.45 -0.0247002 0
2.475 -0.0247002 0
2.5 -0.0247002 0
0.0247843 0.0986666 0
0.0496454 0.0977263 0
0.0745418 0.0968196 0
0.0995078 0.0960886 0
0.124502 0.0952559 0
0.149507 0.0944804 0
0.174593 0.093669 0
0.199713 0.0926759 0
0.224882 0.0915889 0
0.250156 0.0901522 0
0.275505 0.0883447 0
0.300921 0.0861255 0
0.326458 0.0832308 0
0.351994 0.0795482 0
0.37739 0.0753359 0
0.402587 0.0707121 0
0.427616 0.0659894 0
0.452539 0.0612866 0
0.477412 0.056746 0
0.502306 0.0523127 0
0.527193 0.0479394 0
0.552049 0.0436761 0
0.576884 0.0395083 0
0.601719 0.0354378 0
0.626599 0.0314612 0
0.651558 0.027579 0
0.676581 0.0238629 0
0.701634 0.0203973 0
0.72669 0.0172237 0
0.75173 0.0143622 0
0.776735 0.0118198 0
0.801692 0.00958708 0
0.826602 0.00765304 0
0.85148 0.0060109 0
0.876344 0.00464378 0
0.901209 0.0035191 0
0.926079 0.00260274 0
0.950953 0.00187264 0
0.975827 0.00131611 0
1.0007 0.000918044 0
1.02557 0.000653786 0
1.05044 0.000491369 0
1.07532 0.00039859 0
1.10023 0.000348905 0
1.12515 0.000323646 0
1.1501 0.000311265 0
1.17506 0.000305311 0
1.20003 0.000302459 0
1.22502 0.000301084 0
1.25001 0.000300417 0
1.27501 0.000300092 0
1.3 0.000299936 0
1.325 0.000299861 0
1.35 0.000299827 0
1.375 0.000299812 0
1.4 0.000299805 0
1.425 0.000299802 0
1.45 0.000299801 0
1.475 0.0002998 0
1.5 0.0002998 0
1.525 0.0002998 0
1.55 0.0002998 0
1.575 0.0002998 0
1.6 0.0002998 0
1.625 0.0002998 0
1.65 0.0002998 0
1.675 0.0002998 0
1.7 0.0002998 0
1.725 0.0002998 0
1.75 0.0002998 0
1.775 0.0002998 0
1.8 0.0002998 0
1.825 0.0002998 0
1.85 0.0002998 0
1.875 0.0002998 0
1.9 0.0002998 0
1.925 0.0002998 0
1.95 0.0002998 0
1.975 0.0002998 0
2 0.0002998 0
2.025 0.0002998 0
2.05 0.0002998 0
2.075 0.0002998 0
2.1 0.0002998 0
2.125 0.0002998 0
2.15 0.0002998 0
2.175 0.0002998 0
2.2 0.0002998 0
2.225 0.0002998 0
2.25 0.0002998 0
2.275 0.0002998 0
2.3 0.0002998 0
2.325 0.0002998 0
2.35 0.0002998 0
2.375 0.0002998 0
2.4 0.0002998 0
2.425 0.0002998 0
2.45 0.0002998 0
2.475 0.0002998 0
2.5 0.0002998 0
0.0247935 0.123566 0
0.0496608 0.122511 0
0.0745533 0.121538 0
0.0995269 0.120628 0
0.124521 0.119729 0
0.149565 0.11883 0
0.174668 0.117826 0
0.199772 0.116719 0
0.224988 0.115452 0
0.250289 0.113854 0
0.275623 0.111939 0
0.301028 0.10957 0
0.326483 0.106636 0
0.351905 0.103155 0
0.377236 0.0992021 0
0.402453 0.0948797 0
0.427518 0.0903969 0
0.45244 0.0859196 0
0.477339 0.0815091 0
0.502275 0.0770968 0
0.527201 0.0727721 0
0.552088 0.0685776 0
0.576918 0.0644623 0
0.601716 0.0604199 0
0.626568 0.056445 0
0.651523 0.0525552 0
0.676556 0.0488323 0
0.701621 0.0453576 0
0.726685 0.0421767 0
0.751727 0.0393157 0
0.776731 0.0367812 0
0.801688 0.0345609 0
0.826601 0.0326417 0
0.851478 0.0310131 0
0.876341 0.0296555 0
0.901204 0.0285372 0
0.926076 0.0276273 0
0.950955 0.0269055 0
0.975832 0.0263572 0
1.0007 0.0259643 0
1.02557 0.0257 0
1.05044 0.0255328 0
1.07533 0.0254321 0
1.10023 0.0253738 0
1.12515 0.0253407 0
1.1501 0.0253222 0
1.17506 0.0253119 0
1.20003 0.0253062 0
1.22502 0.0253031 0
1.25001 0.0253015 0
1.275 0.0253006 0
1.3 0.0253002 0
1.325 0.0253 0
1.35 0.0252999 0
1.375 0.0252998 0
1.4 0.0252998 0
1.425 0.0252998 0
1.45 0.0252998 0
1.475 0.0252998 0
1.5 0.0252998 0
1.525 0.0252998 0
1.55 0.0252998 0
1.575 0.0252998 0
1.6 0.0252998 0
1.625 0.0252998 0
1.65 0.0252998 0
1.675 0.0252998 0
1.7 0.0252998 0
1.725 0.0252998 0
1.75 0.0252998 0
1.775 0.0252998 0
1.8 0.0252998 0
1.825 0.0252998 0
1.85 0.0252998 0
1.875 0.0252998 0
1.9 0.0252998 0
1.925 0.0252998 0
1.95 0.0252998 0
1.975 0.0252998 0
2 0.0252998 0
2.025 0.0252998 0
2.05 0.0252998 0
2.075 0.0252998 0
2.1 0.0252998 0
2.125 0.0252998 0
2.15 0.0252998 0
2.175 0.0252998 0
2.2 0.0252998 0
2.225 0.0252998 0
2.25 0.0252998 0
2.275 0.0252998 0
2.3 0.0252998 0
2.325 0.0252998 0
2.35 0.0252998 0
2.375 0.0252998 0
2.4 0.0252998 0
2.425 0.0252998 0
2.45 0.0252998 0
2.475 0.0252998 0
2.5 0.0252998 0
0.0248062 0.148409 0
0.0496853 0.147222 0
0.0745766 0.146149 0
0.0995255 0.145122 0
0.124518 0.144197 0
0.149632 0.143172 0
0.174735 0.142056 0
0.199828 0.140879 0
0.2251 0.139457 0
0.250395 0.137785 0
0.275685 0.135827 0
0.301099 0.133398 0
0.326504 0.130514 0
0.351813 0.12722 0
0.37711 0.123431 0
0.402378 0.119278 0
0.427478 0.114987 0
0.452402 0.110674 0
0.477305 0.106286 0
0.502251 0.101868 0
0.52721 0.0975825 0
0.552119 0.0934551 0
0.576934 0.0894193 0
0.601704 0.0854166 0
0.626535 0.0814284 0
0.651481 0.0775152 0
0.676522 0.0737771 0
0.701609 0.0702905 0
0.726689 0.0671047 0
0.751731 0.0642498 0
0.77673 0.0617275 0
0.801687 0.0595221 0
0.826601 0.0576204 0
0.851478 0.0560086 0
0.876337 0.054662 0
0.901197 0.0535488 0
0.926071 0.0526429 0
0.950954 0.0519275 0
0.975837 0.0513879 0
1.00071 0.0510022 0
1.02558 0.0507408 0
1.05045 0.0505711 0
1.07533 0.0504644 0
1.10023 0.0503984 0
1.12515 0.050358 0
1.15009 0.0503334 0
1.17506 0.0503188 0
1.20003 0.0503102 0
1.22502 0.0503053 0
1.25001 0.0503026 0
1.275 0.0503012 0
1.3 0.0503005 0
1.325 0.0503001 0
1.35 0.0502999 0
1.375 0.0502999 0
1.4 0.0502998 0
1.425 0.0502998 0
1.45 0.0502998 0
1.475 0.0502998 0
1.5 0.0502998 0
1.525 0.0502998 0
1.55 0.0502998 0
1.575 0.0502998 0
1.6 0.0502998 0
1.625 0.0502998 0
1.65 0.0502998 0
1.675 0.0502998 0
1.7 0.0502998 0
1.725 0.0502998 0
1.75 0.0502998 0
1.775 0.0502998 0
1.8 0.0502998 0
1.825 0.0502998 0
1.85 0.0502998 0
1.875 0.0502998 0
1.9 0.0502998 0
1.925 0.0502998 0
1.95 0.0502998 0
1.975 0.0502998 0
2 0.0502998 0
2.025 0.0502998 0
2.05 0.0502998 0
2.075 0.0502998 0
2.1 0.0502998 0
2.125 0.0502998 0
2.15 0.0502998 0
2.175 0.0502998 0
2.2 0.0502998 0
2.225 0.0502998 0
2.25 0.0502998 0
2.275 0.0502998 0
2.3 0.0502998 0
2.325 0.0502998 0
2.35 0.0502998 0
2.375 0.0502998 0
2.4 0.0502998 0
2.425 0.0502998 0
2.45 0.0502998 0
2.475 0.0502998 0
2.5 0.0502998 0
0.0247996 0.173374 0
0.0497062 0.172119 0
0.0746282 0.170997 0
0.0996088 0.169827 0
0.124549 0.168801 0
0.149648 0.167652 0
0.174734 0.16652 0
0.199876 0.165312 0
0.225211 0.163777 0
0.250397 0.162163 0
0.275633 0.160203 0
0.301139 0.157685 0
0.326532 0.154871 0
0.351717 0.151687 0
0.377003 0.147912 0
0.402354 0.143786 0
0.427476 0.139642 0
0.452358 0.135445 0
0.477235 0.131076 0
0.502242 0.126658 0
0.527271 0.122385 0
0.552161 0.118325 0
0.57692 0.114379 0
0.601672 0.1104 0
0.6265 0.106378 0
0.651437 0.102428 0
0.676487 0.0986653 0
0.701603 0.0951667 0
0.726703 0.0919904 0
0.751745 0.0891586 0
0.776736 0.0866583 0
0.801692 0.0844727 0
0.826608 0.0825935 0
0.851482 0.0810037 0
0.876334 0.0796705 0
0.90119 0.0785608 0
0.926065 0.0776554 0
0.950954 0.0769442 0
0.975841 0.0764133 0
1.00072 0.0760369 0
1.02558 0.0757808 0
1.05045 0.0756109 0
1.07533 0.0754991 0
1.10022 0.0754257 0
1.12515 0.0753776 0
1.15009 0.0753465 0
1.17505 0.0753268 0
1.20003 0.0753149 0
1.22502 0.0753079 0
1.25001 0.075304 0
1.275 0.0753019 0
1.3 0.0753008 0
1.325 0.0753003 0
1.35 0.0753 0
1.375 0.0752999 0
1.4 0.0752998 0
1.425 0.0752998 0
1.45 0.0752998 0
1.475 0.0752998 0
1.5 0.0752998 0
1.525 0.0752998 0
1.55 0.0752998 0
1.575 0.0752998 0
1.6 0.0752998 0
1.625 0.0752998 0
1.65 0.0752998 0
1.675 0.0752998 0
1.7 0.0752998 0
1.725 0.0752998 0
1.75 0.0752998 0
1.775 0.0752998 0
1.8 0.0752998 0
1.825 0.0752998 0
1.85 0.0752998 0
1.875 0.0752998 0
1.9 0.0752998 0
1.925 0.0752998 0
1.95 0.0752998 0
1.975 0.0752998 0
2 0.0752998 0
2.025 0.0752998 0
2.05 0.0752998 0
2.075 0.0752998 0
2.1 0.0752998 0
2.125 0.0752998 0
2.15 0.0752998 0
2.175 0.0752998 0
2.2 0.0752998 0
2.225 0.0752998 0
2.25 0.0752998 0
2.275 0.0752998 0
2.3 0.0752998 0
2.325 0.0752998 0
2.35 0.0752998 0
2.375 0.0752998 0
2.4 0.0752998 0
2.425 0.0752998 0
2.45 0.0752998 0
2.475 0.0752998 0
2.5 0.0752998 0
</DataArray>
</Points>
<PointData>
<DataArray NumberOfComponents='1' type='Int32' Name='Particle Type' format='ascii'>
0
0
0
0
0
0
0
0
0
0
0
0
0
0
0
0
0
0
0
0
0
0
1
1
1
1
1
1
1
1
1
1
1
1
1
1
1
1
1
1
1
1
1
1
1
1
1
1
1
1
1
1
1
1
1
1
1
1
1
1
1
1
1
1
1
1
1
1
1
1
1
1
1
1
1
1
1
1
1
1
1
1
1
1
1
1
1
1
1
1
1
1
1
1
1
1
1
1
1
1
1
1
1
1
1
1
1
1
1
1
1
1
1
1
1
1
1
1
1
1
1
1
1
1
1
1
1
1
1
1
1
1
1
1
1
1
1
1
1
1
1
1
1
1
1
1
1
1
1
1
1
1
1
1
1
1
1
1
1
1
1
1
1
1
1
1
1
1
1
1
1
1
1
1
1
1
1
1
1
1
1
1
1
1
1
1
1
1
1
1
1
1
1
1
1
1
1
1
1
1
1
1
1
1
1
1
1
1
1
1
1
1
1
1
1
1
1
1
1
1
1
1
1
1
1
1
1
1
1
1
1
1
1
1
1
1
1
1
1
1
1
1
1
1
1
1
1
1
1
1
1
1
1
1
1
1
1
1
1
1
1
1
1
1
1
1
1
1
1
1
1
1
1
1
1
1
1
1
1
1
1
1
1
1
1
1
1
1
1
1
1
1
1
1
1
1
1
1
1
1
1
1
1
1
1
1
1
1
1
1
1
1
1
1
1
1
1
1
1
1
1
1
1
1
1
1
1
1
1
1
1
1
1
1
1
1
1
1
1
1
1
1
1
1
1
1
1
1
1
1
1
1
1
1
1
1
1
1
1
1
1
1
1
1
1
1
1
1
1
1
1
1
1
1
1
1
1
1
1
1
1
1
1
1
1
1
1
1
1
1
1
1
1
1
1
1
1
1
1
1
1
1
1
1
1
1
1
1
1
1
1
1
1
1
1
1
1
1
1
1
1
1
1
1
1
1
1
1
1
1
1
1
1
1
1
1
1
1
1
1
1
1
1
1
1
1
1
1
1
1
1
1
1
1
1
1
1
1
1
1
1
1
1
1
1
1
1
1
1
1
1
1
1
1
1
1
1
1
1
1
1
1
1
1
1
1
1
1
1
1
1
1
1
1
1
1
1
1
1
1
1
1
1
1
1
1
1
1
1
1
1
1
1
1
1
1
1
1
1
1
1
1
1
1
1
1
1
1
1
1
1
1
1
1
1
1
1
1
1
1
1
1
1
1
1
1
1
1
1
1
1
1
1
1
1
1
1
1
1
1
1
1
1
1
1
1
1
1
1
1
1
1
1
1
1
1
1
1
1
1
1
1
1
1
1
1
1
1
1
1
1
1
1
1
1
1
1
1
1
1
1
1
1
1
1
1
1
1
1
1
1
1
1
1
1
1
1
1
1
1
1
1
1
1
1
1
1
1
1
1
1
1
1
1
1
1
1
1
1
1
1
1
1
1
1
1
1
1
1
1
1
1
1
1
1
1
1
1
1
1
1
1
1
1
1
1
1
1
1
1
1
1
1
1
1
1
1
1
1
1
1
1
1
1
1
1
1
1
1
1
1
1
1
1
1
1
1
1
1
1
1
1
1
1
1
1
1
1
1
1
1
1
1
1
1
1
1
1
1
1
1
1
1
1
1
1
1
1
1
1
1
1
1
1
1
1
1
1
1
1
1
1
1
1
1
1
1
1
1
1
1
1
1
1
1
1
1
1
1
1
1
1
1
1
1
1
1
1
1
1
1
1
1
1
1
1
1
1
1
1
1
1
1
1
1
1
1
1
1
1
1
1
1
1
1
1
1
1
1
1
1
1
1
1
1
1
1
1
</DataArray>
<DataArray NumberOfComponents='3' type='Float64' Name='Velocity' format='ascii'>
0 0 0
0 0 0
0 0 0
0 0 0
0 0 0
0 0 0
0 0 0
0 0 0
0 0 0
0 0 0
0 0 0
0 0 0
0 0 0
0 0 0
0 0 0
0 0 0
0 0 0
0 0 0
0 0 0
0 0 0
0 0 0
0 0 0
0.00618258 -0.0233776 0
0.00622302 -0.0374198 0
0.00688459 -0.0448262 0
0.00622908 -0.0499254 0
0.00650077 -0.0552215 0
0.00697809 -0.0591814 0
0.00404845 -0.0640543 0
0.00421891 -0.0662648 0
0.00353383 -0.0704981 0
0.000598254 -0.0748711 0
-9.7362e-05 -0.0778589 0
-0.000879318 -0.0834147 0
-0.00269028 -0.0895178 0
-0.00280407 -0.0948431 0
-0.00146725 -0.103125 0
-0.000449888 -0.114491 0
0.000406003 -0.125078 0
0.00186844 -0.133798 0
0.00361662 -0.142505 0
0.0048477 -0.151815 0
0.00526705 -0.160426 0
0.00514061 -0.167404 0
0.0048715 -0.17322 0
0.00470925 -0.178805 0
0.00468992 -0.184464 0
0.00469901 -0.189781 0
0.00458031 -0.194146 0
0.00423474 -0.197227 0
0.00366438 -0.199075 0
0.00295404 -0.199983 0
0.00221941 -0.200298 0
0.00155846 -0.200309 0
0.00102676 -0.200201 0
0.000637327 -0.200075 0
0.00037422 -0.199972 0
0.000208641 -0.199899 0
0.000110833 -0.199854 0
5.62687e-05 -0.199828 0
2.73773e-05 -0.199814 0
1.2797e-05 -0.199806 0
5.75936e-06 -0.199803 0
2.50062e-06 -0.199801 0
1.04931e-06 -0.199801 0
4.26231e-07 -0.1998 0
1.67845e-07 -0.1998 0
6.41622e-08 -0.1998 0
2.38391e-08 -0.1998 0
8.61853e-09 -0.1998 0
3.03501e-09 -0.1998 0
1.04209e-09 -0.1998 0
3.49137e-10 -0.1998 0
1.14262e-10 -0.1998 0
3.65767e-11 -0.1998 0
1.14656e-11 -0.1998 0
3.5059e-12 -0.1998 0
1.05571e-12 -0.1998 0
2.96661e-13 -0.1998 0
5.54817e-14 -0.1998 0
6.49347e-15 -0.1998 0
4.7919e-16 -0.1998 0
3.96798e-17 -0.1998 0
2.47134e-17 -0.1998 0
-5.18377e-17 -0.1998 0
-2.86282e-17 -0.1998 0
9.29315e-18 -0.1998 0
-5.29841e-17 -0.1998 0
1.40064e-18 -0.1998 0
1.00132e-16 -0.1998 0
-1.97627e-18 -0.1998 0
-1.27309e-16 -0.1998 0
2.16916e-18 -0.1998 0
6.16136e-17 -0.1998 0
-9.27606e-18 -0.1998 0
4.10037e-17 -0.1998 0
1.57964e-16 -0.1998 0
1.57378e-16 -0.1998 0
-8.14584e-17 -0.1998 0
-1.99347e-16 -0.1998 0
-1.3198e-17 -0.1998 0
1.88699e-16 -0.1998 0
4.9648e-16 -0.1998 0
3.36242e-16 -0.1998 0
-2.27182e-16 -0.1998 0
-1.87781e-16 -0.1998 0
-1.55145e-16 -0.1998 0
-2.76148e-16 -0.1998 0
0.000170213 0.00251092 0
0.000329969 0.00445053 0
0.000846684 0.00551544 0
0.00094617 0.00685838 0
0.00017582 0.00909249 0
0.0005207 0.00962638 0
-0.00132906 0.0127206 0
-0.00305639 0.00921029 0
-0.00171751 0.00641204 0
-0.00197815 0.0062556 0
-0.00273345 0.00271472 0
-0.00140657 0.00138727 0
0.000368181 5.6474e-05 0
0.00363146 -0.00955472 0
0.00550183 -0.0252706 0
0.00529661 -0.036235 0
0.00583806 -0.0427115 0
0.00503021 -0.046951 0
0.00481456 -0.0532153 0
0.00475001 -0.0587258 0
0.00365634 -0.0639039 0
0.00386382 -0.067512 0
0.00369711 -0.0711199 0
0.00222729 -0.0745652 0
0.000962655 -0.0776012 0
-0.000697275 -0.0825299 0
-0.00252073 -0.0888869 0
-0.00288021 -0.0957138 0
-0.00189666 -0.104442 0
-0.000702128 -0.115025 0
0.000524622 -0.125236 0
0.0020414 -0.134269 0
0.00358693 -0.143139 0
0.00465299 -0.152187 0
0.00506066 -0.160506 0
0.00501707 -0.167437 0
0.00483854 -0.173346 0
0.00472504 -0.178964 0
0.00470547 -0.184529 0
0.00468792 -0.189679 0
0.00454563 -0.193887 0
0.00419683 -0.196874 0
0.00364325 -0.198697 0
0.00295837 -0.199635 0
0.00224577 -0.200012 0
0.00159683 -0.200094 0
0.00106679 -0.200052 0
0.000672008 -0.199978 0
0.000400603 -0.199912 0
0.000226778 -0.199865 0
0.0001223 -0.199836 0
6.3018e-05 -0.199818 0
3.11074e-05 -0.199809 0
1.47457e-05 -0.199804 0
6.72673e-06 -0.199802 0
2.95892e-06 -0.199801 0
1.25725e-06 -0.1998 0
5.16863e-07 -0.1998 0
2.05889e-07 -0.1998 0
7.95762e-08 -0.1998 0
2.9879e-08 -0.1998 0
1.09115e-08 -0.1998 0
3.8797e-09 -0.1998 0
1.34439e-09 -0.1998 0
4.5448e-10 -0.1998 0
1.50026e-10 -0.1998 0
4.83828e-11 -0.1998 0
1.52289e-11 -0.1998 0
4.71448e-12 -0.1998 0
1.42599e-12 -0.1998 0
4.2115e-13 -0.1998 0
9.73992e-14 -0.1998 0
1.13783e-14 -0.1998 0
7.80141e-16 -0.1998 0
1.18713e-17 -0.1998 0
2.26506e-17 -0.1998 0
-1.33542e-18 -0.1998 0
9.93829e-18 -0.1998 0
8.86774e-18 -0.1998 0
-6.04802e-17 -0.1998 0
-2.65121e-18 -0.1998 0
1.15068e-16 -0.1998 0
7.70482e-17 -0.1998 0
-6.82384e-17 -0.1998 0
-4.54257e-17 -0.1998 0
-2.41041e-17 -0.1998 0
-6.52195e-17 -0.1998 0
6.5092e-17 -0.1998 0
2.35255e-16 -0.1998 0
1.55537e-16 -0.1998 0
-1.80845e-16 -0.1998 0
-2.32738e-16 -0.1998 0
-3.00947e-17 -0.1998 0
1.32141e-16 -0.1998 0
2.70865e-16 -0.1998 0
-1.99515e-16 -0.1998 0
-3.04599e-16 -0.1998 0
1.37013e-16 -0.1998 0
-4.57531e-17 -0.1998 0
-8.02493e-17 -0.1998 0
-0.000540888 0.0016003 0
-0.000789213 0.00271612 0
-0.000620292 0.00340383 0
-0.000945767 0.00467229 0
-0.00237973 0.00638011 0
-0.00162374 0.00409537 0
-0.00186932 0.00862157 0
-0.00276288 0.00513484 0
-0.00139079 0.00242136 0
-0.00162043 0.00339513 0
-0.00223606 -0.00216287 0
-0.000492673 -0.00552483 0
0.00132277 -0.00644905 0
0.00401832 -0.0152145 0
0.00575989 -0.0285555 0
0.00589999 -0.035502 0
0.00575963 -0.0406242 0
0.00498597 -0.0479634 0
0.00500163 -0.0545431 0
0.0046527 -0.0592955 0
0.004012 -0.0639856 0
0.00398512 -0.068058 0
0.00380645 -0.0713072 0
0.00298262 -0.0741375 0
0.00159999 -0.076925 0
-0.000451212 -0.0814059 0
-0.00233815 -0.0881409 0
-0.00291824 -0.0961833 0
-0.00224826 -0.105338 0
-0.00100422 -0.115382 0
0.000515861 -0.125242 0
0.00217837 -0.134451 0
0.00364191 -0.143492 0
0.00456778 -0.152456 0
0.00490785 -0.160653 0
0.00487933 -0.167597 0
0.00475317 -0.173584 0
0.00468782 -0.179199 0
0.00469417 -0.184637 0
0.00468319 -0.189597 0
0.00454053 -0.193637 0
0.00419478 -0.196526 0
0.00365027 -0.198329 0
0.00297698 -0.199303 0
0.0022735 -0.199746 0
0.0016283 -0.199898 0
0.00109667 -0.199919 0
0.000696808 -0.199894 0
0.000419088 -0.199862 0
0.000239367 -0.199837 0
0.000130232 -0.19982 0
6.76854e-05 -0.199811 0
3.36909e-05 -0.199805 0
1.60987e-05 -0.199802 0
7.40039e-06 -0.199801 0
3.27908e-06 -0.1998 0
1.40298e-06 -0.1998 0
5.80572e-07 -0.1998 0
2.3271e-07 -0.1998 0
9.04735e-08 -0.1998 0
3.41605e-08 -0.1998 0
1.25409e-08 -0.1998 0
4.48125e-09 -0.1998 0
1.5602e-09 -0.1998 0
5.29794e-10 -0.1998 0
1.75544e-10 -0.1998 0
5.68401e-11 -0.1998 0
1.7989e-11 -0.1998 0
5.58358e-12 -0.1998 0
1.69654e-12 -0.1998 0
5.14133e-13 -0.1998 0
1.27558e-13 -0.1998 0
1.52565e-14 -0.1998 0
1.04371e-15 -0.1998 0
7.80739e-18 -0.1998 0
1.68481e-17 -0.1998 0
5.73109e-17 -0.1998 0
7.44239e-17 -0.1998 0
7.27501e-18 -0.1998 0
-5.08543e-17 -0.1998 0
8.68932e-18 -0.1998 0
1.0267e-16 -0.1998 0
1.35015e-16 -0.1998 0
9.61525e-18 -0.1998 0
-1.02272e-16 -0.1998 0
-1.37994e-16 -0.1998 0
-3.44427e-17 -0.1998 0
8.0365e-17 -0.1998 0
5.06501e-17 -0.1998 0
-3.04601e-17 -0.1998 0
-9.08118e-17 -0.1998 0
4.31603e-17 -0.1998 0
-8.58181e-17 -0.1998 0
-1.94756e-16 -0.1998 0
-3.16628e-16 -0.1998 0
-4.23841e-16 -0.1998 0
2.45465e-16 -0.1998 0
4.14683e-16 -0.1998 0
1.46275e-16 -0.1998 0
1.61951e-16 -0.1998 0
-0.000172667 0.00136101 0
-0.000749729 0.0027245 0
-0.00142833 0.00205265 0
-0.00191854 -0.000225303 0
-0.00310361 0.00189668 0
-0.00307709 -0.00314755 0
-0.00260866 0.000670335 0
-0.00235415 -0.0014301 0
-0.00148813 -0.00271161 0
-0.00112894 -0.00118613 0
-0.00163339 -0.0074894 0
-0.000333037 -0.0104895 0
0.000842757 -0.0132864 0
0.00272188 -0.0202172 0
0.00462537 -0.0322262 0
0.00542609 -0.0375732 0
0.00553799 -0.0451721 0
0.00539292 -0.0509814 0
0.00556781 -0.0566739 0
0.0050932 -0.0608546 0
0.00488669 -0.0641648 0
0.00472737 -0.0675788 0
0.00420779 -0.0706461 0
0.00328445 -0.0736387 0
0.00163125 -0.0764551 0
-0.000503963 -0.0806294 0
-0.00216138 -0.0875367 0
-0.00274594 -0.0962516 0
-0.00235396 -0.105705 0
-0.0012317 -0.115539 0
0.000419022 -0.125256 0
0.00222741 -0.134583 0
0.0037043 -0.143749 0
0.00455466 -0.152705 0
0.004819 -0.160874 0
0.00475386 -0.167864 0
0.00463003 -0.173915 0
0.00459334 -0.179509 0
0.00463943 -0.184809 0
0.00466581 -0.189567 0
0.00455052 -0.193423 0
0.0042208 -0.1962 0
0.00368331 -0.197972 0
0.00301101 -0.198977 0
0.00230488 -0.199483 0
0.00165501 -0.199707 0
0.00111783 -0.19979 0
0.000712477 -0.199813 0
0.000429943 -0.199814 0
0.000246421 -0.19981 0
0.000134546 -0.199806 0
7.01756e-05 -0.199803 0
3.50528e-05 -0.199802 0
1.68067e-05 -0.199801 0
7.75144e-06 -0.1998 0
3.44554e-06 -0.1998 0
1.47867e-06 -0.1998 0
6.13667e-07 -0.1998 0
2.46651e-07 -0.1998 0
9.61429e-08 -0.1998 0
3.63904e-08 -0.1998 0
1.33905e-08 -0.1998 0
4.79546e-09 -0.1998 0
1.67304e-09 -0.1998 0
5.6917e-10 -0.1998 0
1.88991e-10 -0.1998 0
6.13307e-11 -0.1998 0
1.9406e-11 -0.1998 0
6.04223e-12 -0.1998 0
1.84178e-12 -0.1998 0
5.48049e-13 -0.1998 0
1.44171e-13 -0.1998 0
1.76174e-14 -0.1998 0
1.22916e-15 -0.1998 0
1.21994e-17 -0.1998 0
6.53789e-19 -0.1998 0
5.52945e-17 -0.1998 0
6.19142e-17 -0.1998 0
-5.92658e-18 -0.1998 0
7.27003e-18 -0.1998 0
8.13019e-17 -0.1998 0
7.30162e-17 -0.1998 0
2.68636e-17 -0.1998 0
-2.46806e-17 -0.1998 0
-7.24033e-17 -0.1998 0
-1.06547e-17 -0.1998 0
1.22281e-16 -0.1998 0
2.80438e-18 -0.1998 0
-1.84309e-16 -0.1998 0
-7.4645e-17 -0.1998 0
1.54865e-16 -0.1998 0
1.85419e-16 -0.1998 0
-7.75866e-17 -0.1998 0
-1.61922e-16 -0.1998 0
-1.21147e-16 -0.1998 0
2.96017e-16 -0.1998 0
4.7185e-16 -0.1998 0
-3.60285e-16 -0.1998 0
-2.54544e-16 -0.1998 0
1.70727e-16 -0.1998 0
0.000247692 0.000665541 0
-0.000364854 0.00199864 0
-0.0015343 0.00214689 0
-0.00241679 0.00321461 0
-0.00153713 0.0055425 0
-0.00252963 0.000230782 0
-0.00297902 0.00253245 0
-0.00283917 0.000466911 0
-0.0037821 -0.000170246 0
-0.00174344 0.000644974 0
-2.88552e-05 -0.00751479 0
-0.000226304 -0.0118097 0
0.000696414 -0.0148655 0
0.00192217 -0.0226451 0
0.00365326 -0.0304529 0
0.00494828 -0.0371669 0
0.00554413 -0.0441189 0
0.00603098 -0.0514909 0
0.00494046 -0.0588634 0
0.00383088 -0.0616176 0
0.00440707 -0.0642383 0
0.00507472 -0.0672938 0
0.0052059 -0.0701594 0
0.00425028 -0.0734196 0
0.00185569 -0.0763598 0
-0.000716076 -0.0803799 0
-0.00220782 -0.0871862 0
-0.00261697 -0.0959775 0
-0.00229831 -0.105556 0
-0.00128368 -0.115481 0
0.000359005 -0.125313 0
0.00220965 -0.13479 0
0.00372117 -0.144043 0
0.00457657 -0.152989 0
0.00480522 -0.161136 0
0.00467485 -0.168166 0
0.00449571 -0.17428 0
0.00445026 -0.179865 0
0.00453732 -0.185041 0
0.00462787 -0.189601 0
0.00456881 -0.193264 0
0.00427056 -0.195911 0
0.00373982 -0.197637 0
0.00305882 -0.198662 0
0.00233857 -0.199226 0
0.00167567 -0.199517 0
0.00112909 -0.199662 0
0.000717988 -0.199732 0
0.000432363 -0.199766 0
0.000247364 -0.199783 0
0.000134859 -0.199792 0
7.02541e-05 -0.199796 0
3.50582e-05 -0.199798 0
1.67967e-05 -0.199799 0
7.7423e-06 -0.1998 0
3.43996e-06 -0.1998 0
1.4758e-06 -0.1998 0
6.12332e-07 -0.1998 0
2.46075e-07 -0.1998 0
9.59085e-08 -0.1998 0
3.62996e-08 -0.1998 0
1.33569e-08 -0.1998 0
4.78337e-09 -0.1998 0
1.66894e-09 -0.1998 0
5.67799e-10 -0.1998 0
1.88479e-10 -0.1998 0
6.11379e-11 -0.1998 0
1.93624e-11 -0.1998 0
6.02887e-12 -0.1998 0
1.84245e-12 -0.1998 0
5.45274e-13 -0.1998 0
1.43814e-13 -0.1998 0
1.76027e-14 -0.1998 0
1.20732e-15 -0.1998 0
-1.41228e-17 -0.1998 0
4.63236e-18 -0.1998 0
2.963e-17 -0.1998 0
-5.23879e-18 -0.1998 0
-1.12436e-17 -0.1998 0
6.11376e-17 -0.1998 0
6.78301e-17 -0.1998 0
5.35139e-18 -0.1998 0
-4.14056e-17 -0.1998 0
-4.60239e-17 -0.1998 0
1.74204e-18 -0.1998 0
1.44973e-16 -0.1998 0
1.60264e-16 -0.1998 0
-3.96974e-17 -0.1998 0
-1.83308e-16 -0.1998 0
-8.93188e-17 -0.1998 0
1.12263e-16 -0.1998 0
-7.88899e-17 -0.1998 0
3.96784e-17 -0.1998 0
2.88598e-16 -0.1998 0
3.25e-16 -0.1998 0
3.08957e-16 -0.1998 0
-2.91796e-16 -0.1998 0
-2.343e-16 -0.1998 0
2.47236e-17 -0.1998 0
-6.00911e-17 -0.1998 0
-0.000710057 0.0014064 0
-0.00106988 0.00215577 0
-0.00204654 0.00368608 0
-0.001957 0.00496409 0
-0.00125738 0.00468099 0
-0.00374178 0.00384143 0
-0.00261452 0.00474142 0
-0.00164308 0.00141009 0
-0.00443095 -0.000608321 0
-0.00286206 -0.0017895 0
0.000612598 -0.00766619 0
0.000588371 -0.0127436 0
0.00157595 -0.0171771 0
0.00281069 -0.0250704 0
0.00325309 -0.0303389 0
0.00438273 -0.0368354 0
0.00631247 -0.0439206 0
0.00672245 -0.0522212 0
0.00420821 -0.0566552 0
0.0027958 -0.0595833 0
0.00322903 -0.0646191 0
0.00458434 -0.0683822 0
0.00622609 -0.0710447 0
0.00578584 -0.0737485 0
0.00267651 -0.0762552 0
-0.000694495 -0.080218 0
-0.00250418 -0.0868868 0
-0.00285418 -0.0954818 0
-0.00232466 -0.105135 0
-0.00117208 -0.115332 0
0.000434617 -0.125425 0
0.0021925 -0.135092 0
0.00370058 -0.14443 0
0.00462007 -0.153338 0
0.00486223 -0.161408 0
0.00465153 -0.168427 0
0.00436563 -0.174599 0
0.00427385 -0.180215 0
0.00439963 -0.185318 0
0.004576 -0.189709 0
0.00459653 -0.193178 0
0.00434085 -0.195678 0
0.00381436 -0.197336 0