<?xml version='1.0' encoding='UTF-8'?>
<VTKFile byte_order='LittleEndian' version='0.1' type = 'UnstructuredGrid'>
<UnstructuredGrid>
<FieldData>
<DataArray type='Float64' Name='Time' NumberOfComponents='1' NumberOfTuples='1' format='ascii'>
4.281
</DataArray>
</FieldData>
<Piece NumberOfCells='808' NumberOfPoints='808'>
<Points>
<DataArray NumberOfComponents='3' type='Float64' Name='position' format='ascii'>
-0.00177764 -0.00113077 0
-0.0019206 0.0252734 0
-0.00945814 0.0488245 0
-0.0071515 0.0874482 0
-0.00751351 0.0950629 0
-0.00013276 0.125316 0
-0.00555584 0.15237 0
-0.00515465 0.176955 0
0.0250193 -0.000901088 0
0.0514081 -0.00464226 0
0.0746093 -0.00243694 0
0.0971831 -0.00167079 0
0.124556 -0.002637 0
0.153243 -0.00380156 0
0.175279 -0.00815508 0
0.200814 -0.0139207 0
0.213715 -0.00884176 0
0.233446 -0.00642808 0
0.251653 -0.026147 0
0.296375 -0.0278316 0
0.314648 -0.0435058 0
0.334797 -0.00136636 0
0.373617 -0.303135 0
0.406975 -0.327716 0
0.42893 -0.322831 0
0.4392 -0.335815 0
0.460434 -0.337393 0
0.474286 -0.340664 0
0.515298 -0.312358 0
0.535272 -0.318914 0
0.560752 -0.422611 0
0.590493 -0.428664 0
0.646739 -0.460114 0
0.653583 -0.490348 0
0.678351 -0.449676 0
0.689337 -0.52124 0
0.709728 -0.526398 0
0.740376 -0.532016 0
0.743206 -0.551521 0
0.787904 -0.579054 0
0.839888 -0.600331 0
0.86416 -0.582283 0
0.855053 -0.621001 0
0.870449 -0.773362 0
0.908736 -0.760777 0
0.920784 -0.731025 0
0.960215 -0.755739 0
0.972191 -0.747671 0
1.02759 -0.779981 0
1.05629 -0.784919 0
1.07023 -0.852875 0
1.10571 -0.82472 0
1.13565 -0.832921 0
1.17393 -0.930987 0
1.19155 -0.94669 0
1.20954 -0.912042 0
1.24143 -0.913825 0
1.25945 -0.950499 0
1.28409 -0.961298 0
1.34126 -0.963562 0
1.34262 -0.992546 0
1.34367 -1.02472 0
1.37606 -1.02732 0
1.38456 -1.05919 0
1.40321 -1.07731 0
1.46829 -1.10105 0
1.48844 -1.11666 0
1.51373 -1.13945 0
1.51919 -1.151 0
1.55426 -1.1521 0
1.57878 -1.16478 0
1.6068 -1.18679 0
1.63117 -1.20323 0
1.64096 -1.20527 0
1.67699 -1.21944 0
1.69832 -1.228 0
1.7185 -1.24437 0
1.75577 -1.26785 0
1.77883 -1.27165 0
1.79462 -1.2686 0
1.81417 -1.27733 0
1.83976 -1.29575 0
1.86939 -1.30692 0
1.89503 -1.3083 0
1.91232 -1.31152 0
1.93186 -1.32234 0
1.96179 -1.33696 0
1.99279 -1.34833 0
2.01511 -1.3532 0
2.03356 -1.35506 0
2.05699 -1.3619 0
2.08601 -1.3755 0
2.11461 -1.38749 0
2.1384 -1.39128 0
2.15963 -1.39214 0
2.18249 -1.3971 0
2.20785 -1.40558 0
2.2353 -1.4124 0
2.26341 -1.41516 0
2.28933 -1.41597 0
2.31183 -1.41727 0
2.33387 -1.42043 0
2.35914 -1.42416 0
2.38685 -1.42724 0
2.41376 -1.42913 0
2.43862 -1.42952 0
2.46229 -1.42893 0
2.48616 -1.42817 0
-0.000281037 0.0087566 0
0.0362505 0.0101762 0
0.0666852 0.0157569 0
0.105611 0.0200788 0
0.130107 0.0297117 0
0.161055 0.0142163 0
0.179179 0.0156263 0
0.198957 0.0176469 0
0.235936 0.00725094 0
0.259729 0.00141261 0
0.268207 -0.00777919 0
0.286268 -0.0143811 0
0.319057 -0.0154797 0
0.348327 -0.0127431 0
0.351231 -0.290636 0
0.385756 -0.30416 0
0.396158 -0.296693 0
0.44306 -0.304231 0
0.473082 -0.290415 0
0.482784 -0.312944 0
0.506766 -0.307142 0
0.532979 -0.346021 0
0.556826 -0.412787 0
0.581529 -0.392721 0
0.606846 -0.421645 0
0.649425 -0.444345 0
0.678855 -0.438085 0
0.709699 -0.463284 0
0.716241 -0.500435 0
0.753794 -0.514498 0
0.774385 -0.516361 0
0.783582 -0.54545 0
0.824527 -0.537949 0
0.846087 -0.563279 0
0.85592 -0.601749 0
0.894994 -0.640038 0
0.897519 -0.683038 0
0.909708 -0.715591 0
0.965225 -0.718746 0
1.00428 -0.740932 0
1.03167 -0.751144 0
1.03889 -0.759532 0
1.0752 -0.804228 0
1.10096 -0.803864 0
1.16555 -0.814865 0
1.16382 -0.852062 0
1.16851 -0.894726 0
1.2082 -0.887836 0
1.24367 -0.903466 0
1.26042 -0.91715 0
1.28609 -0.931056 0
1.31966 -0.950117 0
1.32226 -0.960426 0
1.35243 -0.989518 0
1.39211 -1.02255 0
1.40069 -1.03955 0
1.41653 -1.05575 0
1.4515 -1.071 0
1.483 -1.09004 0
1.49293 -1.09119 0
1.5303 -1.1137 0
1.54985 -1.12969 0
1.58607 -1.1487 0
1.6093 -1.16004 0
1.61871 -1.17493 0
1.65199 -1.18859 0
1.67882 -1.1894 0
1.69611 -1.20344 0
1.7224 -1.22509 0
1.74983 -1.23632 0
1.77388 -1.23877 0
1.79596 -1.24368 0
1.81611 -1.2553 0
1.83969 -1.27025 0
1.86857 -1.27956 0
1.8936 -1.28268 0
1.91264 -1.28765 0
1.93446 -1.29865 0
1.96237 -1.31242 0
1.9903 -1.3215 0
2.01358 -1.3258 0
2.03467 -1.3303 0
2.05884 -1.33993 0
2.08664 -1.35205 0
2.11327 -1.3607 0
2.13677 -1.36454 0
2.15944 -1.36684 0
2.18362 -1.37296 0
2.20904 -1.38109 0
2.23546 -1.388 0
2.26248 -1.39017 0
2.28814 -1.39037 0
2.31174 -1.39194 0
2.33498 -1.39551 0
2.36006 -1.39968 0
2.38673 -1.4026 0
2.41306 -1.40383 0
2.43809 -1.40387 0
2.46227 -1.4035 0
2.48654 -1.40318 0
0.023806 0.0585549 0
0.039556 0.0447168 0
0.0519309 0.0578555 0
0.0930124 0.0463164 0
0.117592 0.0455555 0
0.144004 0.051696 0
0.192846 0.0345548 0
0.189086 0.0252883 0
0.208679 0.0234845 0
0.26348 0.0120075 0
0.267712 0.0293549 0
0.2766 0.0046043 0
0.311303 0.0117191 0
0.35904 -0.00862897 0
0.380405 -0.0375909 0
0.372947 -0.250005 0
0.417775 -0.259339 0
0.424234 -0.277075 0
0.450456 -0.281152 0
0.49413 -0.285698 0
0.519906 -0.294999 0
0.525751 -0.307616 0
0.563913 -0.348883 0
0.62027 -0.36383 0
0.623547 -0.383444 0
0.642538 -0.414579 0
0.672647 -0.414052 0
0.696531 -0.455194 0
0.724299 -0.458357 0
0.766428 -0.487849 0
0.783943 -0.505593 0
0.80246 -0.540867 0
0.832181 -0.516445 0
0.857527 -0.561462 0
0.879175 -0.583169 0
0.888582 -0.59878 0
0.91396 -0.658981 0
0.948879 -0.678752 0
0.971309 -0.691286 0
1.00887 -0.727196 0
1.03188 -0.709065 0
1.05491 -0.735184 0
1.07893 -0.761843 0
1.12109 -0.778586 0
1.13388 -0.805306 0
1.17418 -0.848701 0
1.1784 -0.86078 0
1.20074 -0.859208 0
1.23168 -0.88364 0
1.25978 -0.894018 0
1.27605 -0.916474 0
1.30569 -0.940525 0
1.33837 -0.951777 0
1.3531 -0.959768 0
1.38192 -0.987518 0
1.40143 -1.02841 0
1.42687 -1.02845 0
1.45486 -1.03118 0
1.47309 -1.06168 0
1.50733 -1.0755 0
1.5284 -1.09179 0
1.54922 -1.10684 0
1.58321 -1.11496 0
1.61146 -1.13761 0
1.61857 -1.15137 0
1.64709 -1.15998 0
1.6836 -1.16735 0
1.69998 -1.18124 0
1.71813 -1.20133 0
1.74821 -1.20809 0
1.77412 -1.20836 0
1.79443 -1.21952 0
1.81623 -1.23303 0
1.84057 -1.24375 0
1.86781 -1.25286 0
1.89298 -1.25826 0
1.9132 -1.26372 0
1.93545 -1.27443 0
1.96264 -1.28655 0
1.9892 -1.29472 0
2.01244 -1.29991 0
2.03527 -1.30673 0
2.06026 -1.3172 0
2.08701 -1.32753 0
2.11235 -1.334 0
2.13556 -1.33804 0
2.15916 -1.34202 0
2.18439 -1.34875 0
2.21009 -1.3565 0
2.23569 -1.36262 0
2.26164 -1.365 0
2.28734 -1.36547 0
2.31179 -1.36701 0
2.33576 -1.37088 0
2.3607 -1.37514 0
2.38666 -1.37764 0
2.41253 -1.37838 0
2.43766 -1.37835 0
2.46225 -1.37833 0
2.48689 -1.37847 0
0.0244944 0.0801007 0
0.0400423 0.0802252 0
0.0501639 0.08168 0
0.0851281 0.0619751 0
0.122436 0.0720331 0
0.143564 0.0687267 0
0.165918 0.0650487 0
0.194097 0.0464719 0
0.207418 0.0537443 0
0.245612 0.0615959 0
0.263392 0.0389942 0
0.272326 0.018645 0
0.327787 0.0180957 0
0.356785 0.00165331 0
0.385492 -0.0228345 0
0.390902 -0.213437 0
0.441367 -0.204905 0
0.449479 -0.221446 0
0.456803 -0.268247 0
0.495813 -0.249465 0
0.514028 -0.270381 0
0.564326 -0.289986 0
0.572864 -0.330295 0
0.611136 -0.342296 0
0.609284 -0.359308 0
0.648159 -0.360486 0
0.681584 -0.397256 0
0.708548 -0.395993 0
0.762023 -0.433033 0
0.751811 -0.466889 0
0.772079 -0.470987 0
0.802539 -0.516375 0
0.847241 -0.506702 0
0.845892 -0.516724 0
0.872115 -0.566496 0
0.898901 -0.578807 0
0.908437 -0.611978 0
0.932366 -0.657047 0
0.959182 -0.680294 0
1.0035 -0.693859 0
1.02294 -0.690475 0
1.06785 -0.696312 0
1.07943 -0.713292 0
1.1205 -0.768423 0
1.13197 -0.780495 0
1.14592 -0.795253 0
1.2062 -0.831803 0
1.21708 -0.841884 0
1.23776 -0.84596 0
1.26246 -0.867076 0
1.27845 -0.890061 0
1.32238 -0.912379 0
1.34246 -0.927211 0
1.36923 -0.948543 0
1.37722 -0.969134 0
1.39194 -0.990363 0
1.43566 -1.00791 0
1.46353 -1.02156 0
1.48316 -1.0311 0
1.50244 -1.04412 0
1.51772 -1.06855 0
1.55268 -1.08625 0
1.59117 -1.092 0
1.61174 -1.10648 0
1.62218 -1.13081 0
1.64677 -1.13008 0
1.67821 -1.13661 0
1.70108 -1.16242 0
1.71893 -1.17539 0
1.74528 -1.17665 0
1.77513 -1.18339 0
1.79583 -1.1949 0
1.81449 -1.20851 0
1.84054 -1.21971 0
1.86834 -1.22525 0
1.89177 -1.23194 0
1.91348 -1.24139 0
1.93686 -1.2504 0
1.96224 -1.25974 0
1.98815 -1.26842 0
2.01244 -1.27479 0
2.03563 -1.28336 0
2.06081 -1.29428 0
2.0873 -1.30209 0
2.11164 -1.30674 0
2.13451 -1.31207 0
2.15915 -1.3182 0
2.18535 -1.32453 0
2.21082 -1.33113 0
2.23556 -1.33693 0
2.26094 -1.33948 0
2.28681 -1.34058 0
2.312 -1.34272 0
2.33643 -1.34656 0
2.36113 -1.35041 0
2.38651 -1.35244 0
2.41206 -1.35297 0
2.43732 -1.35309 0
2.46233 -1.35341 0
2.48731 -1.35391 0
0.021207 0.0977812 0
0.044215 0.100495 0
0.050593 0.0917469 0
0.067612 0.0695322 0
0.114133 0.0998378 0
0.13384 0.0710569 0
0.177595 0.0947521 0
0.19945 0.0813454 0
0.219449 0.0659902 0
0.240233 0.0700261 0
0.268252 0.0620142 0
0.296301 0.0468692 0
0.328733 0.0305731 0
0.356714 0.0232879 0
0.372943 -0.00153409 0
0.408913 -0.0340369 0
0.398282 -0.182912 0
0.449995 -0.184973 0
0.454281 -0.205229 0
0.48315 -0.219267 0
0.509459 -0.233427 0
0.552069 -0.263628 0
0.572581 -0.315161 0
0.605851 -0.32713 0
0.621926 -0.344017 0
0.646897 -0.328017 0
0.689012 -0.375282 0
0.718332 -0.405629 0
0.732774 -0.423831 0
0.774031 -0.438091 0
0.782648 -0.464374 0
0.803557 -0.469414 0
0.824787 -0.475866 0
0.858017 -0.487309 0
0.877114 -0.541568 0
0.898168 -0.566282 0
0.917263 -0.58633 0
0.948958 -0.606609 0
0.947541 -0.646677 0
0.983406 -0.671967 0
1.00805 -0.675905 0
1.06636 -0.684304 0
1.09413 -0.691773 0
1.10713 -0.71669 0
1.13819 -0.740169 0
1.15663 -0.763911 0
1.18158 -0.791009 0
1.22859 -0.815489 0
1.23915 -0.807789 0
1.25908 -0.829743 0
1.29124 -0.868138 0
1.31149 -0.857772 0
1.33078 -0.875256 0
1.36688 -0.913285 0
1.37772 -0.95392 0
1.40146 -0.973018 0
1.43799 -0.973331 0
1.4574 -0.986673 0
1.47757 -1.00811 0
1.50728 -1.0248 0
1.53133 -1.04591 0
1.55182 -1.06321 0
1.58391 -1.06487 0
1.61097 -1.08206 0
1.62734 -1.10487 0
1.64761 -1.1094 0
1.67378 -1.11136 0
1.6984 -1.1329 0
1.7213 -1.15065 0
1.74627 -1.14994 0
1.77273 -1.15493 0
1.79625 -1.17262 0
1.8165 -1.18539 0
1.83975 -1.1918 0
1.86669 -1.199 0
1.89163 -1.20705 0
1.91417 -1.21723 0
1.93765 -1.22667 0
1.96216 -1.23374 0
1.98726 -1.24138 0
2.01229 -1.25098 0
2.03636 -1.26028 0
2.06111 -1.26928 0
2.08675 -1.2762 0
2.111 -1.28063 0
2.13435 -1.2868 0
2.1594 -1.29409 0
2.18594 -1.30078 0
2.21115 -1.30567 0
2.23522 -1.31006 0
2.2604 -1.31365 0
2.28664 -1.31618 0
2.31238 -1.31905 0
2.33703 -1.32237 0
2.3614 -1.32533 0
2.38624 -1.32699 0
2.41157 -1.32772 0
2.43706 -1.32821 0
2.46247 -1.32875 0
2.48771 -1.32928 0
0.0223988 0.131979 0
0.0323391 0.105264 0
0.0581989 0.101064 0
0.0947016 0.109115 0
0.0858435 0.104359 0
0.138646 0.100711 0
0.18027 0.105342 0
0.184877 0.0865518 0
0.217481 0.0841085 0
0.262901 0.0972536 0
0.273374 0.0526931 0
0.291895 0.058561 0
0.339006 0.0466866 0
0.358009 0.0508183 0
0.374278 0.0145734 0
0.407005 -0.022938 0
0.432937 -0.0362072 0
0.449664 -0.158757 0
0.492559 -0.148157 0
0.489389 -0.189441 0
0.520531 -0.218044 0
0.543295 -0.231778 0
0.563467 -0.255802 0
0.602127 -0.304221 0
0.615794 -0.311438 0
0.668184 -0.305032 0
0.695982 -0.320754 0
0.710279 -0.377911 0
0.743903 -0.401157 0
0.777733 -0.425491 0
0.787879 -0.441349 0
0.796609 -0.459346 0
0.843342 -0.463317 0
0.854627 -0.470936 0
0.883755 -0.513273 0
0.876478 -0.506414 0
0.929725 -0.557216 0
0.953548 -0.59263 0
0.965135 -0.592004 0
0.987043 -0.616764 0
1.02922 -0.657331 0
1.05645 -0.682994 0
1.08361 -0.66965 0
1.12138 -0.688934 0
1.11635 -0.698712 0
1.13466 -0.719289 0
1.17627 -0.763132 0
1.19962 -0.770862 0
1.23874 -0.792852 0
1.26922 -0.815439 0
1.2867 -0.842338 0
1.32165 -0.840356 0
1.34397 -0.858498 0
1.36096 -0.893724 0
1.37629 -0.927873 0
1.40454 -0.936175 0
1.43949 -0.949221 0
1.45369 -0.967221 0
1.47615 -0.982589 0
1.51186 -1.00233 0
1.53579 -1.02078 0
1.55197 -1.02497 0
1.57713 -1.03614 0
1.61414 -1.06486 0
1.63202 -1.07961 0
1.64644 -1.07924 0
1.67146 -1.08945 0
1.69888 -1.11003 0
1.72294 -1.12096 0
1.74689 -1.12262 0
1.77108 -1.13197 0
1.79481 -1.14874 0
1.81833 -1.15981 0
1.84109 -1.16497 0
1.8644 -1.1722 0
1.89008 -1.18266 0
1.91558 -1.19349 0
1.93892 -1.20165 0
1.96189 -1.20795 0
1.98648 -1.21665 0
2.01193 -1.22679 0
2.03691 -1.2359 0
2.06159 -1.24384 0
2.08599 -1.24996 0
2.11002 -1.2555 0
2.13467 -1.26258 0
2.16046 -1.27009 0
2.18614 -1.27583 0
2.21058 -1.27963 0
2.23475 -1.28376 0
2.26027 -1.288 0
2.28682 -1.29199 0
2.31282 -1.29565 0
2.33754 -1.29824 0
2.36153 -1.29991 0
2.38586 -1.30127 0
2.41105 -1.30264 0
2.43687 -1.30378 0
2.46265 -1.3043 0
2.48797 -1.30438 0
0.0183121 0.153109 0
0.0384307 0.137126 0
0.0721365 0.139616 0
0.0966821 0.141215 0
0.127885 0.132813 0
0.131834 0.122226 0
0.171004 0.114666 0
0.183815 0.122354 0
0.21607 0.101507 0
0.258818 0.106957 0
0.279729 0.0911558 0
0.304783 0.0862948 0
0.328152 0.0540066 0
0.35924 0.0629801 0
0.38173 0.0465869 0
0.414763 0.00691748 0
0.508551 -0.00259389 0
0.466049 -0.0813246 0
0.489278 -0.113968 0
0.484598 -0.141556 0
0.521617 -0.169332 0
0.566941 -0.218136 0
0.597318 -0.227965 0
0.588417 -0.274528 0
0.62253 -0.264224 0
0.659697 -0.296097 0
0.684331 -0.292171 0
0.713242 -0.332136 0
0.732571 -0.326545 0
0.789323 -0.426117 0
0.798385 -0.440707 0
0.808893 -0.443614 0
0.823809 -0.449112 0
0.861427 -0.445825 0
0.878476 -0.46677 0
0.909435 -0.499421 0
0.932512 -0.515636 0
0.956347 -0.548286 0
0.971298 -0.56187 0
0.990155 -0.588686 0
1.01595 -0.629721 0
1.06173 -0.652619 0
1.0763 -0.634963 0
1.10896 -0.672297 0
1.13657 -0.691964 0
1.15751 -0.713553 0
1.16564 -0.732815 0
1.21426 -0.747971 0
1.23682 -0.764793 0
1.27908 -0.799699 0
1.28362 -0.810796 0
1.31182 -0.83568 0
1.33323 -0.845117 0
1.36063 -0.862162 0
1.37737 -0.900298 0
1.40263 -0.91169 0
1.43878 -0.92038 0
1.46031 -0.951702 0
1.47888 -0.964227 0
1.51481 -0.972588 0
1.5364 -0.980041 0
1.54596 -0.990398 0
1.5735 -1.01998 0
1.60873 -1.04334 0
1.63161 -1.04466 0
1.64876 -1.04979 0
1.67129 -1.07166 0
1.69881 -1.08814 0
1.72603 -1.08939 0
1.74793 -1.09568 0
1.76775 -1.11089 0
1.79276 -1.12473 0
1.82038 -1.13316 0
1.84298 -1.13752 0
1.86272 -1.14568 0
1.8877 -1.15917 0
1.91658 -1.16978 0
1.94136 -1.17554 0
1.96195 -1.1825 0
1.98467 -1.1928 0
2.01124 -1.20291 0
2.0379 -1.21103 0
2.06217 -1.21725 0
2.08509 -1.22369 0
2.1091 -1.23118 0
2.13524 -1.2393 0
2.16165 -1.24579 0
2.18631 -1.25035 0
2.20972 -1.25391 0
2.23397 -1.25767 0
2.26017 -1.26248 0
2.28727 -1.26812 0
2.31352 -1.27232 0
2.33802 -1.27394 0
2.36145 -1.27422 0
2.38532 -1.27533 0
2.41058 -1.27776 0
2.43683 -1.27976 0
2.46283 -1.27994 0
2.48799 -1.27903 0
0.00624036 0.169311 0
0.0564483 0.175635 0
0.0798324 0.181337 0
0.0870178 0.144637 0
0.145013 0.150885 0
0.142654 0.138718 0
0.174092 0.13942 0
0.218333 0.139554 0
0.240341 0.111535 0
0.24725 0.122086 0
0.281878 0.117188 0
0.301565 0.102742 0
0.331404 0.0931073 0
0.377375 0.0777857 0
0.381818 0.0600509 0
0.384268 0.00510521 0
0.41852 -0.0293199 0
0.449516 -0.0248697 0
0.498893 -0.0726442 0
0.504928 -0.0875266 0
0.523266 -0.115178 0
0.55306 -0.143605 0
0.609468 -0.181434 0
0.607982 -0.236418 0
0.628077 -0.248236 0
0.639289 -0.276686 0
0.681443 -0.260453 0
0.735891 -0.285189 0
0.763359 -0.290228 0
0.753008 -0.293477 0
0.782068 -0.411526 0
0.793683 -0.44967 0
0.809589 -0.428168 0
0.839023 -0.405187 0
0.88286 -0.414926 0
0.89508 -0.452949 0
0.936671 -0.504871 0
0.950903 -0.508421 0
1.05199 -0.474699 0
0.998789 -0.582543 0
1.01919 -0.606103 0
1.06579 -0.617285 0
1.10349 -0.637943 0
1.12214 -0.636891 0
1.14869 -0.660836 0
1.15254 -0.694035 0
1.17969 -0.69888 0
1.2043 -0.748888 0
1.22349 -0.737383 0
1.2735 -0.74305 0
1.27846 -0.777615 0
1.31205 -0.846109 0
1.33396 -0.834795 0
1.37358 -0.847886 0
1.37455 -0.861287 0
1.41057 -0.902912 0
1.44292 -0.893781 0
1.4606 -0.918443 0
1.47436 -0.941386 0
1.50543 -0.937993 0
1.54307 -0.958608 0
1.55219 -0.964677 0
1.56767 -0.9963 0
1.59897 -1.01598 0
1.63256 -1.01722 0
1.65338 -1.0284 0
1.66995 -1.05075 0
1.6985 -1.06246 0
1.72996 -1.06315 0
1.74883 -1.0695 0
1.76374 -1.08702 0
1.79031 -1.10242 0
1.82288 -1.10682 0
1.84536 -1.10906 0
1.86085 -1.12004 0
1.88483 -1.13597 0
1.91752 -1.14631 0
1.94467 -1.1501 0
1.96228 -1.156 0
1.98177 -1.16788 0
2.01005 -1.18016 0
2.03966 -1.18649 0
2.0632 -1.18992 0
2.08385 -1.19751 0
2.10802 -1.2081 0
2.13595 -1.21629 0
2.16291 -1.22076 0
2.18652 -1.22463 0
2.20871 -1.22822 0
2.23292 -1.23191 0
2.2599 -1.23732 0
2.28798 -1.24426 0
2.31467 -1.24908 0
2.3385 -1.24922 0
2.36102 -1.24794 0
2.38458 -1.24932 0
2.41019 -1.25319 0
2.43699 -1.256 0
2.4631 -1.25551 0
2.48781 -1.25321 0
</DataArray>
</Points>
<PointData>
<DataArray NumberOfComponents='1' type='Int32' Name='Particle Type' format='ascii'>
0
0
0
0
0
0
0
0
0
0
0
0
0
0
0
0
0
0
0
0
0
0
1
1
1
1
1
1
1
1
1
1
1
1
1
1
1
1
1
1
1
1
1
1
1
1
1
1
1
1
1
1
1
1
1
1
1
1
1
1
1
1
1
1
1
1
1
1
1
1
1
1
1
1
1
1
1
1
1
1
1
1
1
1
1
1
1
1
1
1
1
1
1
1
1
1
1
1
1
1
1
1
1
1
1
1
1
1
1
1
1
1
1
1
1
1
1
1
1
1
1
1
1
1
1
1
1
1
1
1
1
1
1
1
1
1
1
1
1
1
1
1
1
1
1
1
1
1
1
1
1
1
1
1
1
1
1
1
1
1
1
1
1
1
1
1
1
1
1
1
1
1
1
1
1
1
1
1
1
1
1
1
1
1
1
1
1
1
1
1
1
1
1
1
1
1
1
1
1
1
1
1
1
1
1
1
1
1
1
1
1
1
1
1
1
1
1
1
1
1
1
1
1
1
1
1
1
1
1
1
1
1
1
1
1
1
1
1
1
1
1
1
1
1
1
1
1
1
1
1
1
1
1
1
1
1
1
1
1
1
1
1
1
1
1
1
1
1
1
1
1
1
1
1
1
1
1
1
1
1
1
1
1
1
1
1
1
1
1
1
1
1
1
1
1
1
1
1
1
1
1
1
1
1
1
1
1
1
1
1
1
1
1
1
1
1
1
1
1
1
1
1
1
1
1
1
1
1
1
1
1
1
1
1
1
1
1
1
1
1
1
1
1
1
1
1
1
1
1
1
1
1
1
1
1
1
1
1
1
1
1
1
1
1
1
1
1
1
1
1
1
1
1
1
1
1
1
1
1
1
1
1
1
1
1
1
1
1
1
1
1
1
1
1
1
1
1
1
1
1
1
1
1
1
1
1
1
1
1
1
1
1
1
1
1
1
1
1
1
1
1
1
1
1
1
1
1
1
1
1
1
1
1
1
1
1
1
1
1
1
1
1
1
1
1
1
1
1
1
1
1
1
1
1
1
1
1
1
1
1
1
1
1
1
1
1
1
1
1
1
1
1
1
1
1
1
1
1
1
1
1
1
1
1
1
1
1
1
1
1
1
1
1
1
1
1
1
1
1
1
1
1
1
1
1
1
1
1
1
1
1
1
1
1
1
1
1
1
1
1
1
1
1
1
1
1
1
1
1
1
1
1
1
1
1
1
1
1
1
1
1
1
1
1
1
1
1
1
1
1
1
1
1
1
1
1
1
1
1
1
1
1
1
1
1
1
1
1
1
1
1
1
1
1
1
1
1
1
1
1
1
1
1
1
1
1
1
1
1
1
1
1
1
1
1
1
1
1
1
1
1
1
1
1
1
1
1
1
1
1
1
1
1
1
1
1
1
1
1
1
1
1
1
1
1
1
1
1
1
1
1
1
1
1
1
1
1
1
1
1
1
1
1
1
1
1
1
1
1
1
1
1
1
1
1
1
1
1
1
1
1
1
1
1
1
1
1
1
1
1
1
1
1
1
1
1
1
1
1
1
1
1
1
1
1
1
1
1
1
1
1
1
1
1
1
1
1
1
1
1
1
1
1
1
1
1
1
1
1
1
1
1
1
1
1
1
1
1
1
1
1
1
1
1
1
1
1
1
1
1
1
1
1
1
1
1
1
1
1
1
1
1
1
1
1
1
1
1
1
1
1
1
1
1
1
1
1
1
1
1
1
1
1
1
1
1
1
1
1
1
1
1
1
1
1
1
1
1
1
1
1
1
1
1
1
1
1
1
1
1
1
1
1
1
1
1
1
1
1
1
1
1
1
1
1
1
1
1
</DataArray>
<DataArray NumberOfComponents='3' type='Float64' Name='Velocity' format='ascii'>
-0.735997 -0.2641 0
-0.518009 0.0842582 0
-1.07722 -0.0829008 0
-0.620877 0.952867 0
-0.788915 -0.18557 0
0.340091 0.407734 0
-0.816737 0.258567 0
-0.772271 0.333739 0
0.107389 -0.408196 0
0.0542993 -0.809777 0
0.136195 -0.516678 0
-0.245806 -0.396407 0
0.0337184 -0.468349 0
0.376891 -0.837306 0
-0.146835 -0.834983 0
0.061625 -0.975356 0
-0.593831 -0.324714 0
-0.912366 -0.492835 0
-0.855123 -0.261107 0
0.955353 -0.540594 0
0.0245939 -0.7824 0
0.267661 -0.0743826 0
-0.123858 -0.839951 0
-0.714696 -0.639395 0
-1.16645 -1.20713 0
-0.109786 -1.19431 0
0.473239 0.653364 0
1.26365 -0.33524 0
0.304314 -0.884095 0
0.661744 -0.24833 0
0.398675 -0.351319 0
-0.0522008 -0.959543 0
-0.361146 -0.435275 0
-0.228122 -0.973994 0
-0.322279 -0.383565 0
0.0141143 1.09321 0
0.0031348 -0.514006 0
-0.149521 -0.400259 0
0.510007 1.24126 0
0.0462709 -0.324026 0
0.0302749 0.125528 0
-0.0686911 -0.252688 0
-0.15877 0.0195077 0
0.315669 -0.763074 0
-0.386414 0.0277674 0
0.490554 -0.867768 0
0.0189598 0.306959 0
-0.946997 -0.0694305 0
-0.719828 -0.584055 0
-1.19534 0.0666679 0
0.594566 0.21903 0
-0.822891 -0.505992 0
0.709653 -0.266608 0
-0.00420787 0.0374414 0
0.0158722 -1.21925 0
0.0150643 -1.42848 0
0.551361 -0.590158 0
0.673015 -0.55368 0
-0.531378 -1.44645 0
0.3883 -0.918021 0
0.204406 -0.479195 0
0.0650441 -0.48701 0
0.0983914 -0.352095 0
0.62977 0.269813 0
-0.987513 0.112175 0
-0.658384 -0.219018 0
0.195223 -0.00512675 0
0.661402 -0.374548 0
-0.23563 -1.02129 0
-0.110485 -0.420131 0
0.0595927 -0.208462 0
-0.224534 -0.297772 0
0.159471 -0.559227 0
0.294166 -0.461092 0
-0.334101 -0.264099 0
0.554399 -0.603394 0
-0.380483 0.166198 0
-0.2286 -0.194266 0
0.213649 -0.699796 0
0.261917 -0.590052 0
0.0595556 -0.153863 0
-0.133513 -0.0903376 0
-0.132563 -0.433358 0
0.12539 -0.550672 0
0.244263 -0.350383 0
-0.0274829 -0.132253 0
-0.261743 -0.145162 0
-0.0918145 -0.330465 0
0.155431 -0.498221 0
0.135716 -0.460376 0
-0.0718017 -0.222987 0
-0.175878 -0.112133 0
-0.0650589 -0.295489 0
0.074568 -0.468198 0
0.0929743 -0.394202 0
0.0144187 -0.202717 0
-0.0698471 -0.138716 0
-0.110513 -0.239276 0
-0.072531 -0.343769 0
0.0408603 -0.371332 0
0.108692 -0.310495 0
0.0379051 -0.239954 0
-0.0844934 -0.230264 0
-0.115584 -0.263413 0
-0.0633728 -0.307967 0
-0.0110691 -0.321268 0
-1.30592e-05 -0.293685 0
-0.015472 -0.256858 0
0.406887 -0.109627 0
-0.172098 0.814318 0
-0.122334 0.444062 0
-0.678569 -0.0444124 0
0.168765 -0.218358 0
0.510111 0.621575 0
1.03698 0.00783294 0
0.0170333 -0.172607 0
-0.102781 -0.634728 0
-0.415343 -0.0167732 0
0.187207 0.0479651 0
0.518398 1.24615 0
-0.0212914 -0.397915 0
-0.315083 0.212405 0
0.94256 -0.584134 0
0.129954 -0.467724 0
0.652271 -1.10184 0
-0.745517 -0.808798 0
-0.801142 -0.976449 0
-0.311571 -0.0758966 0
0.310666 -0.853932 0
-0.630528 0.63558 0
-0.143267 -0.119235 0
-0.443858 -0.0827715 0
-0.0181012 0.0337678 0
0.0312274 0.0186531 0
-0.443276 -0.857077 0
0.735548 -0.408812 0
0.176014 0.134765 0
0.810972 0.0756259 0
-0.0454639 0.193436 0
0.674886 -0.662751 0
-0.385283 0.34337 0
-0.753591 -1.56612 0
0.659238 0.809836 0
-0.785763 0.592346 0
0.0999031 0.941078 0
-0.910183 -0.749377 0
0.317072 -0.292188 0
0.579226 -1.26501 0
-0.236984 -0.805189 0
0.46226 -0.860208 0
-0.387254 -0.979996 0
-0.96471 0.288272 0
0.433119 0.089372 0
0.0889453 -0.140086 0
-0.684922 -0.701309 0
-1.32155 -0.258161 0
-0.489 0.0756285 0
0.266218 0.469566 0
-0.507465 -1.26648 0
-0.00746007 -0.038103 0
0.159639 -0.381073 0
0.386099 -0.10766 0
0.091991 0.175335 0
0.419634 -0.684389 0
0.389612 -0.435251 0
-0.509514 -0.507159 0
0.413649 -0.370716 0
0.394429 -0.624852 0
-0.555779 -0.226275 0
0.0293731 -0.329266 0
-0.397851 -0.216498 0
0.472994 -0.515968 0
0.0788819 -0.232707 0
-0.292129 -0.585398 0
0.218556 -0.565504 0
0.105904 -0.0528132 0
-0.0853955 -0.162414 0
-0.0132054 -0.499695 0
0.0457394 -0.561904 0
0.117505 -0.38003 0
0.112867 -0.17915 0
-0.0868222 -0.191727 0
-0.11684 -0.409536 0
0.108998 -0.47003 0
0.16447 -0.324971 0
-0.0335596 -0.155974 0
-0.152039 -0.197805 0
-0.0549476 -0.387062 0
0.0812648 -0.461222 0
0.0696663 -0.352147 0
-0.0641009 -0.196081 0
-0.111276 -0.205308 0
-0.019148 -0.351819 0
0.0548643 -0.433768 0
0.0369773 -0.341082 0
-0.0151078 -0.19326 0
-0.0470772 -0.149531 0
-0.0702434 -0.253145 0
-0.0480112 -0.382374 0
0.0226019 -0.374475 0
0.0617695 -0.292452 0
0.0193515 -0.222086 0
-0.0586148 -0.224323 0
-0.0865002 -0.277522 0
-0.0578983 -0.322425 0
-0.0215331 -0.323297 0
-0.00811971 -0.290737 0
-0.0128356 -0.257777 0
0.259571 0.487244 0
-0.405767 0.396135 0
-0.388766 0.137326 0
-0.434384 -0.49344 0
0.324919 -0.344582 0
-0.615277 -0.0550192 0
-0.130949 0.238065 0
0.0463013 0.134149 0
-0.100532 -0.763809 0
0.235685 -0.0674921 0
0.0816171 0.508018 0
0.41263 0.238067 0
-0.27797 -0.0952453 0
-0.0808045 -0.0972832 0
0.201579 0.170259 0
-0.512684 -0.00617078 0
0.176462 -0.653332 0
-0.173353 -1.26522 0
0.567766 -1.42581 0
0.402077 0.353138 0
-0.340377 -0.365199 0
0.302627 -0.0660286 0
0.647518 -0.683859 0
-0.0886487 -0.874865 0
-0.00361675 0.708929 0
-0.0397284 1.09078 0
-0.409403 -0.163824 0
0.216226 -0.78436 0
0.883045 0.876242 0
0.559507 -0.38928 0
-0.966207 -0.463016 0
0.468729 -0.601088 0
0.923775 -0.792281 0
-0.82231 -0.386952 0
0.121792 -0.384 0
0.423436 0.83583 0
-0.316307 -0.0386018 0
-0.506123 -0.0830068 0
-0.692434 -0.672457 0
0.166207 -0.538347 0
-0.407978 -0.0320248 0
0.752476 0.454972 0
0.426126 -0.222718 0
0.140582 -0.101151 0
-0.390975 0.0497337 0
0.291132 -0.344743 0
0.85995 -0.790209 0
-0.580558 -0.353149 0
0.974756 -1.84968 0
0.199988 0.192373 0
-0.309323 0.356445 0
-0.256019 -0.540498 0
0.322264 -0.52142 0
0.477573 -0.120299 0
-0.392475 0.11993 0
0.203103 -0.299446 0
-0.193477 -1.2633 0
0.217078 -0.315567 0
-0.369981 -0.0048739 0
-0.259435 -0.339635 0
0.661255 -0.206051 0
-0.280129 -0.806264 0
-0.423193 -0.299154 0
0.286196 0.0692159 0
0.553023 -0.618529 0
-0.485892 -0.420091 0
-0.0514912 -0.420715 0
0.3854 -0.154854 0
0.0161175 -0.234343 0
-0.151586 -0.668777 0
0.0919986 -0.483101 0
0.127504 -0.190848 0
0.0434287 -0.243467 0
-0.0558177 -0.271123 0
-0.0898249 -0.341446 0
0.0735644 -0.425827 0
0.1418 -0.338804 0
-0.0234725 -0.195133 0
-0.117654 -0.247718 0
-0.0243521 -0.378939 0
0.0481134 -0.398483 0
0.0133578 -0.284414 0
-0.0604014 -0.221873 0
-0.0646436 -0.280314 0
0.0138118 -0.389511 0
0.045363 -0.386153 0
-0.000202409 -0.295813 0
-0.0414827 -0.183479 0
-0.0399328 -0.179912 0
-0.0330423 -0.273436 0
-0.029117 -0.376713 0
0.00320182 -0.374733 0
0.032068 -0.28588 0
0.00932755 -0.210163 0
-0.0423182 -0.228239 0
-0.0659933 -0.29165 0
-0.0512476 -0.328246 0
-0.0267071 -0.320863 0
-0.0148447 -0.290588 0
-0.0147911 -0.264398 0
0.465053 -0.865593 0
0.196154 -0.346038 0
0.323861 -0.418934 0
-0.322016 -0.269054 0
0.528196 0.124436 0
0.454179 0.465754 0
-0.0276165 0.169551 0
-0.161921 -0.480447 0
0.382399 -0.151638 0
0.212373 -0.209114 0
-0.103827 -0.829902 0
0.0969802 0.405389 0
-0.426296 0.111275 0
0.0940256 0.00535368 0
-0.0261721 0.0434178 0
-0.391344 -0.426343 0
-0.283084 -0.0458606 0
0.493722 0.0305848 0
0.182651 -0.377364 0
-0.0689389 0.279204 0
-1.25586 -0.91383 0
-0.759255 0.00377687 0
-0.307436 -0.388959 0
-0.131381 -1.00182 0
0.280015 0.260648 0
0.146919 0.353833 0
-0.406953 0.174689 0
1.06156 -0.964783 0
-0.461738 -2.17965 0
0.241987 -0.943258 0
0.435612 -0.764552 0
-0.00338896 -0.219459 0
0.607527 -0.122371 0
0.557055 -0.193105 0
-0.89629 -0.770205 0
0.468715 -0.651222 0
-0.502269 0.186974 0
0.744193 -0.257635 0
0.167341 0.884668 0
-0.608456 -0.257968 0
-0.0563995 -1.50727 0
0.749615 -0.954245 0
-0.447538 -0.915455 0
-1.41529 0.176394 0
0.457191 -0.390166 0
0.278651 0.053641 0
-0.97301 -0.478011 0
0.691213 0.540317 0
0.850135 -1.05808 0
0.237174 -0.290961 0
-0.416118 -0.0817513 0
0.0696546 -0.354664 0
-0.325325 -0.411283 0
0.0967472 0.0711528 0
0.698792 -0.385928 0
-0.254126 -0.160906 0
-0.603047 -0.342617 0
0.102079 -0.5518 0
0.184955 -0.699925 0
0.261718 -0.207836 0
-0.138198 -0.0308948 0
-0.455265 -0.412534 0
-0.0815661 -0.548384 0
0.424789 -0.131943 0
0.265172 -0.497025 0
-0.149485 -0.840527 0
-0.103938 -0.0926073 0
0.212148 -0.0393245 0
0.14436 -0.578801 0
-0.174473 -0.571435 0
-0.035904 -0.332537 0
0.231211 -0.235531 0
0.0797918 -0.179439 0
-0.132772 -0.340872 0
-0.0468396 -0.41105 0
0.0846629 -0.308119 0
0.0749786 -0.285843 0
-0.00296746 -0.316141 0
-0.0621247 -0.277638 0
-0.0427673 -0.345929 0
0.020252 -0.34342 0
0.00777033 -0.232301 0
-0.0659105 -0.259333 0
-0.041429 -0.380309 0
0.0459791 -0.384185 0
0.0321657 -0.308126 0
-0.0419557 -0.257059 0
-0.0535415 -0.229696 0
-0.0158088 -0.21079 0
-0.00653816 -0.286113 0
-0.0242472 -0.372478 0
-0.0170707 -0.354096 0
0.00875602 -0.275036 0
0.00721866 -0.215778 0
-0.0258976 -0.242305 0
-0.0500496 -0.300617 0
-0.0465405 -0.326109 0
-0.0314446 -0.314236 0
-0.0215089 -0.289729 0
-0.0175417 -0.273547 0
0.918633 0.0261913 0
0.239598 -0.257117 0
0.520193 -0.32396 0
0.373199 0.460854 0
-1.08655 -0.214307 0
0.00652396 0.113384 0
-1.23427 0.295838 0
-0.276156 0.59348 0
0.128264 0.125682 0
0.30372 -0.0820884 0
-0.152437 -0.249445 0
0.273708 0.461101 0
-0.040956 0.113325 0
-0.382503 0.579388 0
0.138135 -0.136068 0
-0.309096 -0.581109 0
0.177809 -1.46526 0
-0.385096 -0.667726 0
0.733208 -0.897953 0
-0.132529 -0.604025 0
0.452113 -0.576392 0
0.0147022 -0.465027 0
-0.302238 0.174644 0
0.395771 0.406003 0
0.108679 -0.509497 0
0.534864 -0.692681 0
0.209278 0.0283371 0
-0.91563 -1.01966 0
0.00652098 0.108114 0
-0.520559 -0.186236 0
0.0452857 0.421914 0
-0.356043 -0.591642 0
-0.686649 -0.894979 0
1.09997 0.544361 0
0.91729 -0.633757 0
-0.296109 -0.799633 0
0.696527 -0.253204 0
0.210468 -1.00514 0
0.404149 0.0635816 0
-0.534982 0.274017 0
-0.707902 -1.01859 0
-0.226196 -0.696488 0
1.25477 -0.697359 0
0.37871 -0.925653 0
0.489107 0.889612 0
0.617072 0.148901 0
-0.482145 -0.842355 0
0.216461 -0.606824 0
0.590189 -0.361206 0
-0.235349 -0.697867 0
0.176855 -0.0530416 0
0.128789 -0.890585 0
-0.162333 -0.170032 0
-0.11024 -0.0227167 0
0.314768 0.363654 0
-0.383488 -0.731062 0
-0.124058 -0.750332 0
0.228571 -0.201525 0
-0.086432 -0.140702 0
-0.205328 -0.256316 0
0.0652353 -0.106061 0
-0.104839 -0.63237 0
-0.195241 -0.634368 0
0.179085 -0.0945771 0
0.287023 -0.333484 0
0.0728077 -0.790378 0
-0.00495375 -0.407117 0
0.0521738 0.0252143 0
0.0287342 -0.459119 0
-0.0455477 -0.717654 0
-0.0253925 -0.232049 0
0.114637 -0.0830238 0
0.127185 -0.336212 0
-0.0408607 -0.389973 0
-0.0769898 -0.339613 0
0.0381176 -0.289208 0
0.0614083 -0.260741 0
0.00679574 -0.336849 0
-0.0268262 -0.370531 0
-0.03966 -0.290895 0
-0.0153803 -0.258242 0
-0.00280799 -0.269021 0
-0.0395122 -0.308205 0
-0.0264214 -0.383431 0
0.0369482 -0.367455 0
0.0218436 -0.26825 0
-0.0542564 -0.214762 0
-0.0550742 -0.254834 0
0.00487903 -0.290754 0
0.009507 -0.303139 0
-0.0327791 -0.330417 0
-0.0387739 -0.319216 0
-0.00601754 -0.271709 0
0.011827 -0.243722 0
-0.00814403 -0.262975 0
-0.0364081 -0.30051 0
-0.0459127 -0.312787 0
-0.0394103 -0.300484 0
-0.0276789 -0.286823 0
-0.0161796 -0.284971 0
0.390493 0.14054 0
0.672704 0.716272 0
-1.05233 -0.255211 0
-0.0263538 0.223015 0
0.311105 -0.255381 0
0.434739 -0.224315 0
0.128675 -0.340405 0
0.13972 0.887443 0
-0.567573 -0.151931 0
0.294312 0.563087 0
0.11232 0.114808 0
-0.0421263 0.419526 0
-0.150029 0.488512 0
0.0561664 0.15454 0
-0.295204 0.58673 0
-0.0593065 -0.246778 0
0.379919 1.21919 0
-0.866767 -0.671756 0
-0.0226023 -0.654216 0
0.323812 0.0334073 0
0.563243 -0.692877 0
-0.596318 -0.303585 0
0.0276302 -0.0286313 0
-1.01075 -0.0157829 0
0.766734 0.269212 0
0.495851 0.367225 0
-0.0860237 0.0356881 0
-0.822106 -0.0452256 0
-0.0209556 -1.47162 0
-0.790529 -0.252148 0
-0.502627 -1.23409 0
-0.0560581 -0.52636 0
-0.622388 -0.436467 0
0.381715 -0.0262829 0
0.0804961 0.193329 0