<?xml version='1.0' encoding='UTF-8'?>
<VTKFile byte_order='LittleEndian' version='0.1' type = 'UnstructuredGrid'>
<UnstructuredGrid>
<FieldData>
<DataArray type='Float64' Name='Time' NumberOfComponents='1' NumberOfTuples='1' format='ascii'>
4.561
</DataArray>
</FieldData>
<Piece NumberOfCells='808' NumberOfPoints='808'>
<Points>
<DataArray NumberOfComponents='3' type='Float64' Name='position' format='ascii'>
-0.00201484 -0.00174893 0
-0.00265088 0.0249012 0
-0.00945814 0.0488245 0
-0.0071515 0.0874482 0
-0.00751351 0.0950629 0
-0.000237252 0.125334 0
-0.00752124 0.150103 0
-0.00533823 0.177438 0
0.0267947 -0.00175306 0
0.0444678 -0.0062981 0
0.0746093 -0.00243694 0
0.0971831 -0.00167079 0
0.12326 -0.00288562 0
0.153998 -0.00656833 0
0.175906 -0.01305 0
0.204029 -0.0159187 0
0.207148 -0.010506 0
0.231942 -0.0152915 0
0.251653 -0.026147 0
0.296709 -0.0299744 0
0.314648 -0.0435058 0
0.334414 -0.00123058 0
0.347834 -0.532808 0
0.360076 -0.542336 0
0.407103 -0.538288 0
0.42973 -0.538062 0
0.447042 -0.528864 0
0.496363 -0.528387 0
0.547141 -0.502424 0
0.576419 -0.504784 0
0.583886 -0.512783 0
0.595003 -0.542905 0
0.626165 -0.529833 0
0.653598 -0.568318 0
0.666794 -0.585325 0
0.699655 -0.616311 0
0.732274 -0.605231 0
0.748537 -0.619074 0
0.758292 -0.631721 0
0.787836 -0.694317 0
0.827382 -0.712099 0
0.863259 -0.712323 0
0.889362 -0.704764 0
0.846117 -0.849961 0
0.916371 -0.874668 0
0.950584 -0.859256 0
0.957578 -0.869979 0
0.997203 -0.891536 0
1.03661 -0.891546 0
1.04299 -0.881802 0
1.07699 -0.881496 0
1.08607 -0.909488 0
1.14327 -1.02837 0
1.12369 -0.983731 0
1.16677 -1.02108 0
1.21774 -1.00544 0
1.21843 -1.01717 0
1.25814 -1.04953 0
1.25724 -1.09573 0
1.29975 -1.10579 0
1.32368 -1.1499 0
1.36013 -1.15301 0
1.40151 -1.15287 0
1.4008 -1.16502 0
1.39644 -1.17454 0
1.45945 -1.18346 0
1.48076 -1.21536 0
1.50029 -1.19129 0
1.52978 -1.23636 0
1.56642 -1.25706 0
1.58051 -1.26638 0
1.58474 -1.28723 0
1.62824 -1.28608 0
1.6592 -1.29171 0
1.66922 -1.31056 0
1.69748 -1.33616 0
1.72994 -1.32491 0
1.74796 -1.33914 0
1.7892 -1.3786 0
1.81128 -1.3814 0
1.8242 -1.37643 0
1.85665 -1.38762 0
1.87942 -1.39485 0
1.8942 -1.39898 0
1.91028 -1.40918 0
1.94129 -1.42365 0
1.975 -1.42838 0
1.99569 -1.4283 0
2.00879 -1.43251 0
2.0286 -1.44174 0
2.06685 -1.45536 0
2.0963 -1.45901 0
2.11272 -1.45672 0
2.1294 -1.45871 0
2.15507 -1.46851 0
2.18426 -1.47913 0
2.21007 -1.48047 0
2.23243 -1.47821 0
2.25467 -1.48188 0
2.27843 -1.49067 0
2.30503 -1.49578 0
2.33394 -1.49465 0
2.36012 -1.49422 0
2.38013 -1.49815 0
2.39791 -1.50392 0
2.42211 -1.50631 0
2.45414 -1.50495 0
2.487 -1.50358 0
0.0171828 -0.00451176 0
0.0414508 0.00892788 0
0.0720506 0.0209753 0
0.0931795 0.0147275 0
0.126028 0.0244691 0
0.148503 0.0270035 0
0.177421 0.026009 0
0.205515 0.0299996 0
0.218682 0.0352795 0
0.239838 0.025478 0
0.267134 0.00523157 0
0.294553 0.00166591 0
0.318078 -0.00250933 0
0.346702 0.0361734 0
0.363097 -0.467945 0
0.377538 -0.499119 0
0.39552 -0.494889 0
0.419308 -0.520171 0
0.434047 -0.509925 0
0.486144 -0.494249 0
0.534861 -0.470744 0
0.564684 -0.471564 0
0.568193 -0.499002 0
0.596529 -0.508761 0
0.614015 -0.518654 0
0.64398 -0.523487 0
0.691733 -0.523232 0
0.689648 -0.560972 0
0.7375 -0.59365 0
0.738535 -0.583673 0
0.761898 -0.621004 0
0.774071 -0.641041 0
0.794106 -0.654218 0
0.889393 -0.714764 0
0.899669 -0.712198 0
0.919087 -0.724266 0
0.952606 -0.740782 0
0.924101 -0.825101 0
0.982566 -0.831736 0
1.00606 -0.855246 0
1.03232 -0.868441 0
1.04574 -0.869106 0
1.0692 -0.869989 0
1.1052 -0.892711 0
1.09776 -0.915124 0
1.13251 -0.966053 0
1.17857 -0.981513 0
1.19107 -1.00533 0
1.24348 -1.00908 0
1.28066 -1.01051 0
1.29216 -1.03047 0
1.29173 -1.08008 0
1.32847 -1.10971 0
1.35871 -1.11965 0
1.38499 -1.12414 0
1.41203 -1.15334 0
1.43548 -1.16495 0
1.44928 -1.18692 0
1.4823 -1.18021 0
1.51902 -1.21137 0
1.54204 -1.21948 0
1.55461 -1.22458 0
1.57722 -1.2385 0
1.58626 -1.24583 0
1.6246 -1.26823 0
1.658 -1.27016 0
1.66844 -1.28452 0
1.69736 -1.29593 0
1.73405 -1.30898 0
1.74339 -1.31726 0
1.78482 -1.33928 0
1.80636 -1.35103 0
1.82584 -1.35841 0
1.86008 -1.35984 0
1.87722 -1.36117 0
1.89293 -1.37433 0
1.91566 -1.39128 0
1.94256 -1.39759 0
1.97241 -1.3962 0
1.99526 -1.39921 0
2.00981 -1.40822 0
2.03196 -1.42048 0
2.06416 -1.42799 0
2.09216 -1.42837 0
2.11215 -1.42943 0
2.13149 -1.43499 0
2.15663 -1.44651 0
2.1841 -1.45283 0
2.2089 -1.45333 0
2.2317 -1.45279 0
2.25471 -1.45764 0
2.27966 -1.46598 0
2.30598 -1.4704 0
2.33273 -1.47005 0
2.358 -1.46972 0
2.37977 -1.47244 0
2.40023 -1.4774 0
2.4247 -1.48124 0
2.45435 -1.48138 0
2.4846 -1.47953 0
0.00695094 0.0276949 0
0.0373918 0.0539216 0
0.055786 0.0410379 0
0.0898798 0.0493991 0
0.129063 0.0596726 0
0.154252 0.0775273 0
0.153446 0.039712 0
0.191353 0.0498329 0
0.232021 0.0505918 0
0.240658 0.0455516 0
0.268936 0.0301082 0
0.296728 0.0600149 0
0.314308 0.0392588 0
0.354048 0.0524833 0
0.366431 0.0525828 0
0.383887 -0.452408 0
0.396319 -0.464414 0
0.437112 -0.461963 0
0.457794 -0.472787 0
0.516756 -0.461866 0
0.507121 -0.464542 0
0.543343 -0.445046 0
0.57011 -0.479964 0
0.588532 -0.478541 0
0.621866 -0.484513 0
0.650425 -0.508619 0
0.666903 -0.503864 0
0.717944 -0.526535 0
0.719178 -0.558807 0
0.749646 -0.587051 0
0.76993 -0.607416 0
0.780715 -0.609451 0
0.817424 -0.625377 0
0.868944 -0.667453 0
0.904014 -0.676266 0
0.927728 -0.689414 0
0.938382 -0.703904 0
0.96671 -0.737681 0
0.980495 -0.740777 0
1.00655 -0.812519 0
1.00741 -0.826829 0
1.02727 -0.832494 0
1.07628 -0.859022 0
1.11997 -0.866536 0
1.13619 -0.883244 0
1.14372 -0.923934 0
1.16101 -0.945557 0
1.20145 -0.972381 0
1.23302 -0.978426 0
1.27462 -0.978681 0
1.29222 -1.0126 0
1.31553 -1.02133 0
1.32469 -1.07106 0
1.35955 -1.0742 0
1.40026 -1.0825 0
1.39472 -1.0993 0
1.41587 -1.11914 0
1.45423 -1.1478 0
1.49678 -1.16231 0
1.51188 -1.17187 0
1.53683 -1.16747 0
1.56814 -1.20025 0
1.57952 -1.21559 0
1.59799 -1.2346 0
1.62733 -1.23794 0
1.64697 -1.25796 0
1.69302 -1.25171 0
1.7028 -1.27324 0
1.72263 -1.29208 0
1.74122 -1.28418 0
1.77889 -1.30205 0
1.81046 -1.32946 0
1.83027 -1.33584 0
1.85245 -1.32963 0
1.87904 -1.33307 0
1.89744 -1.35202 0
1.9148 -1.36972 0
1.94203 -1.37134 0
1.97132 -1.36627 0
1.99376 -1.37468 0
2.01277 -1.38843 0
2.03466 -1.39643 0
2.06173 -1.39915 0
2.08974 -1.40043 0
2.11248 -1.40312 0
2.13235 -1.41238 0
2.15688 -1.42385 0
2.18475 -1.42721 0
2.20901 -1.4252 0
2.23032 -1.42693 0
2.25424 -1.43418 0
2.28066 -1.4404 0
2.30675 -1.44442 0
2.332 -1.4453 0
2.35641 -1.44531 0
2.37958 -1.44756 0
2.40216 -1.45189 0
2.42673 -1.45552 0
2.4546 -1.4557 0
2.48314 -1.45373 0
0.026042 0.0929689 0
0.0390535 0.0835785 0
0.0446218 0.0627153 0
0.0909048 0.0712662 0
0.116794 0.0755863 0
0.157495 0.087707 0
0.168864 0.0678976 0
0.190707 0.0725208 0
0.207952 0.072481 0
0.243337 0.0629634 0
0.274667 0.0638821 0
0.30501 0.0904607 0
0.346448 0.0743738 0
0.337602 0.0956796 0
0.378414 0.0975521 0
0.405304 -0.427816 0
0.426636 -0.42813 0
0.416972 -0.430853 0
0.480582 -0.433619 0
0.484524 -0.445128 0
0.533464 -0.417426 0
0.549888 -0.453761 0
0.570465 -0.456293 0
0.597186 -0.447318 0
0.629323 -0.461178 0
0.63765 -0.480311 0
0.681034 -0.480536 0
0.718919 -0.483186 0
0.723557 -0.538744 0
0.753964 -0.576627 0
0.778781 -0.566081 0
0.78877 -0.565628 0
0.832464 -0.57692 0
0.874497 -0.613889 0
0.886812 -0.642799 0
0.909286 -0.65648 0
0.944585 -0.682973 0
0.957493 -0.700021 0
0.987933 -0.7283 0
1.0112 -0.766442 0
1.01866 -0.79481 0
1.03267 -0.793825 0
1.06278 -0.81599 0
1.09748 -0.841978 0
1.11962 -0.846275 0
1.16452 -0.887776 0
1.16297 -0.923636 0
1.21087 -0.92954 0
1.22721 -0.941824 0
1.2466 -0.975465 0
1.30512 -1.00035 0
1.3314 -1.02182 0
1.33965 -1.03834 0
1.35392 -1.05377 0
1.3806 -1.06887 0
1.40444 -1.07321 0
1.41663 -1.08541 0
1.45835 -1.10381 0
1.49292 -1.11505 0
1.49634 -1.14063 0
1.53142 -1.15821 0
1.56547 -1.1602 0
1.56245 -1.17572 0
1.60807 -1.19452 0
1.62597 -1.21461 0
1.64738 -1.23192 0
1.68331 -1.22927 0
1.71623 -1.24255 0
1.71886 -1.26549 0
1.742 -1.26976 0
1.77997 -1.26813 0
1.80789 -1.29907 0
1.82974 -1.31688 0
1.85065 -1.29971 0
1.87632 -1.30585 0
1.9013 -1.33258 0
1.91795 -1.3436 0
1.93902 -1.34223 0
1.97016 -1.34275 0
1.99547 -1.3501 0
2.01359 -1.36427 0
2.03522 -1.37211 0
2.06118 -1.37159 0
2.08782 -1.37235 0
2.11245 -1.37938 0
2.13399 -1.38955 0
2.15698 -1.39918 0
2.18375 -1.40073 0
2.20909 -1.39898 0
2.23072 -1.40128 0
2.25402 -1.40957 0
2.28085 -1.4158 0
2.30711 -1.41835 0
2.33137 -1.41947 0
2.35543 -1.42094 0
2.3797 -1.42384 0
2.40364 -1.42721 0
2.42812 -1.42946 0
2.45455 -1.42912 0
2.4819 -1.42717 0
0.0113998 0.105769 0
0.0218927 0.107632 0
0.0596475 0.0986836 0
0.10462 0.101517 0
0.106763 0.0743897 0
0.135834 0.0891066 0
0.170419 0.0946425 0
0.193064 0.10466 0
0.22838 0.0983057 0
0.266667 0.100588 0
0.296704 0.0992767 0
0.316137 0.099608 0
0.338818 0.124129 0
0.367171 0.131037 0
0.381821 0.154719 0
0.409173 0.159837 0
0.424333 -0.384917 0
0.428323 -0.397666 0
0.450218 -0.416836 0
0.487205 -0.419086 0
0.52901 -0.40669 0
0.53428 -0.43278 0
0.553447 -0.415892 0
0.593944 -0.428053 0
0.624031 -0.424944 0
0.640963 -0.447732 0
0.691239 -0.442824 0
0.707889 -0.448135 0
0.742047 -0.472432 0
0.759711 -0.506776 0
0.775625 -0.52433 0
0.774198 -0.535897 0
0.824398 -0.556533 0
0.872062 -0.591825 0
0.880844 -0.622751 0
0.901594 -0.62477 0
0.926652 -0.64555 0
0.955708 -0.669121 0
0.986764 -0.692899 0
1.01366 -0.709411 0
1.03001 -0.749355 0
1.04624 -0.777579 0
1.0829 -0.804807 0
1.09724 -0.797484 0
1.12213 -0.826414 0
1.12753 -0.840155 0
1.17273 -0.919848 0
1.19792 -0.922298 0
1.23004 -0.951414 0
1.25514 -0.949147 0
1.29322 -0.970269 0
1.32802 -0.992794 0
1.3405 -0.989176 0
1.35352 -1.03606 0
1.38289 -1.0576 0
1.41944 -1.04829 0
1.43698 -1.0471 0
1.45303 -1.08257 0
1.4914 -1.10087 0
1.50486 -1.09627 0
1.52981 -1.11582 0
1.55979 -1.13529 0
1.58737 -1.15786 0
1.60433 -1.16994 0
1.62742 -1.20298 0
1.64225 -1.20656 0
1.67931 -1.19824 0
1.70985 -1.22242 0
1.73327 -1.23954 0
1.74569 -1.23689 0
1.7842 -1.25117 0
1.80707 -1.27348 0
1.82305 -1.27978 0
1.84995 -1.27834 0
1.87871 -1.28655 0
1.90072 -1.30469 0
1.91931 -1.3161 0
1.94058 -1.31718 0
1.96788 -1.31763 0
1.99478 -1.32718 0
2.0159 -1.33852 0
2.03567 -1.34426 0
2.05933 -1.3462 0
2.0871 -1.34833 0
2.11322 -1.35472 0
2.13477 -1.36502 0
2.157 -1.37384 0
2.18283 -1.37375 0
2.20849 -1.37254 0
2.23148 -1.37758 0
2.25492 -1.38593 0
2.28091 -1.39045 0
2.30653 -1.39171 0
2.33064 -1.39343 0
2.35515 -1.39668 0
2.38022 -1.40021 0
2.4046 -1.40255 0
2.42863 -1.40318 0
2.45403 -1.40235 0
2.48082 -1.40091 0
0.0149648 0.12062 0
0.0454577 0.109492 0
0.0622072 0.125816 0
0.0999545 0.122816 0
0.150788 0.124969 0
0.151526 0.104078 0
0.174931 0.123767 0
0.219152 0.145605 0
0.23144 0.123185 0
0.247182 0.111097 0
0.258763 0.143107 0
0.313945 0.138756 0
0.330607 0.139793 0
0.363804 0.155878 0
0.382152 0.165291 0
0.411409 0.179251 0
0.444317 0.186046 0
0.438189 -0.379075 0
0.463275 -0.392332 0
0.509671 -0.369937 0
0.529484 -0.385446 0
0.568913 -0.420733 0
0.572407 -0.400504 0
0.603031 -0.393826 0
0.606787 -0.378511 0
0.643007 -0.411208 0
0.673171 -0.423608 0
0.714824 -0.427644 0
0.739737 -0.439821 0
0.765233 -0.474024 0
0.791002 -0.506957 0
0.805663 -0.513141 0
0.801754 -0.528944 0
0.853295 -0.552543 0
0.886176 -0.568635 0
0.915578 -0.607701 0
0.953405 -0.618325 0
0.958742 -0.626782 0
0.986779 -0.647512 0
0.995479 -0.675494 0
1.03831 -0.711823 0
1.04885 -0.744418 0
1.08309 -0.768828 0
1.09005 -0.789933 0
1.12543 -0.812727 0
1.14019 -0.831685 0
1.17612 -0.885112 0
1.20627 -0.904779 0
1.24042 -0.903972 0
1.25244 -0.937429 0
1.29428 -0.936247 0
1.30941 -0.960071 0
1.34477 -0.998219 0
1.36527 -1.01904 0
1.38539 -1.01299 0
1.41683 -1.02617 0
1.44174 -1.01751 0
1.45929 -1.03806 0
1.50238 -1.06749 0
1.51146 -1.05857 0
1.5403 -1.09111 0
1.55443 -1.11499 0
1.5825 -1.13604 0
1.60644 -1.1384 0
1.63311 -1.17025 0
1.65736 -1.18819 0
1.67799 -1.17653 0
1.70834 -1.19183 0
1.73054 -1.20842 0
1.75347 -1.21603 0
1.78205 -1.23099 0
1.80558 -1.24365 0
1.82402 -1.24713 0
1.84882 -1.25448 0
1.87737 -1.26784 0
1.90083 -1.28082 0
1.92068 -1.28592 0
1.94177 -1.28887 0
1.96633 -1.29493 0
1.9932 -1.30333 0
2.01777 -1.31137 0
2.03727 -1.31702 0
2.05777 -1.32051 0
2.08549 -1.32509 0
2.11398 -1.3319 0
2.13608 -1.33949 0
2.15642 -1.34506 0
2.1815 -1.34747 0
2.20833 -1.34905 0
2.23266 -1.35415 0
2.25619 -1.36076 0
2.28087 -1.36494 0
2.30544 -1.36576 0
2.32973 -1.36759 0
2.35515 -1.37195 0
2.381 -1.37612 0
2.40522 -1.37756 0
2.42847 -1.37701 0
2.45337 -1.37642 0
2.48041 -1.37628 0
0.0193674 0.135005 0
0.0600388 0.161337 0
0.0834822 0.159655 0
0.0925978 0.15358 0
0.130147 0.137463 0
0.159567 0.133358 0
0.18322 0.158435 0
0.204681 0.157981 0
0.208949 0.146523 0
0.238407 0.146284 0
0.273485 0.155797 0
0.294019 0.178369 0
0.326512 0.19568 0
0.366206 0.198691 0
0.383799 0.198537 0
0.426132 0.213509 0
0.750657 -0.0201588 0
0.439311 -0.350884 0
0.476705 -0.352823 0
0.500452 -0.373813 0
0.526506 -0.365465 0
0.564068 -0.390734 0
0.589523 -0.384981 0
0.603462 -0.364137 0
0.601537 -0.354209 0
0.624285 -0.367387 0
0.662045 -0.389725 0
0.711375 -0.404112 0
0.727666 -0.4119 0
0.752569 -0.406845 0
0.780462 -0.457147 0
0.817936 -0.501051 0
0.81646 -0.529889 0
0.851865 -0.52307 0
0.861912 -0.546561 0
0.897655 -0.560327 0
0.931921 -0.586803 0
0.98047 -0.61309 0
0.971852 -0.672285 0
0.994049 -0.656829 0
1.01265 -0.696781 0
1.04499 -0.735033 0
1.06299 -0.746274 0
1.09497 -0.758148 0
1.1395 -0.79531 0
1.1507 -0.810173 0
1.16823 -0.844485 0
1.20224 -0.873226 0
1.24102 -0.892481 0
1.26039 -0.909229 0
1.30392 -0.91899 0
1.32166 -0.95461 0
1.34932 -0.95013 0
1.36128 -0.983153 0
1.37933 -0.985399 0
1.42396 -0.988668 0
1.4541 -0.989889 0
1.46087 -1.00549 0
1.49244 -1.04617 0
1.51233 -1.03896 0
1.54708 -1.07131 0
1.56585 -1.10225 0
1.57699 -1.10198 0
1.60633 -1.11739 0
1.62562 -1.13098 0
1.65476 -1.15915 0
1.66872 -1.15923 0
1.70725 -1.16386 0
1.73598 -1.17283 0
1.7516 -1.1974 0
1.78148 -1.21085 0
1.80963 -1.21604 0
1.82795 -1.21393 0
1.84698 -1.22923 0
1.87386 -1.25327 0
1.9008 -1.25702 0
1.92262 -1.25298 0
1.94126 -1.25951 0
1.96413 -1.27271 0
1.99314 -1.28045 0
2.01977 -1.28445 0
2.03825 -1.28752 0
2.05679 -1.29466 0
2.08403 -1.30422 0
2.114 -1.30974 0
2.13722 -1.31133 0
2.1564 -1.31526 0
2.17993 -1.32088 0
2.20773 -1.3271 0
2.23432 -1.3314 0
2.25812 -1.33564 0
2.28054 -1.3377 0
2.3037 -1.33964 0
2.32864 -1.34276 0
2.35548 -1.34735 0
2.382 -1.35138 0
2.40559 -1.35203 0
2.42801 -1.35129 0
2.45299 -1.35203 0
2.48096 -1.354 0
0.0222876 0.183407 0
0.0607677 0.189119 0
0.0636233 0.177682 0
0.0974152 0.177562 0
0.129751 0.16175 0
0.14749 0.172886 0
0.184863 0.196585 0
0.211 0.182753 0
0.224581 0.169687 0
0.266145 0.171552 0
0.291455 0.189784 0
0.296144 0.228611 0
0.324081 0.211765 0
0.370711 0.229443 0
0.388174 0.233536 0
0.396878 0.290529 0
0.439355 0.270068 0
0.422502 -0.305901 0
0.483742 -0.289721 0
0.485305 -0.232002 0
0.561502 -0.190238 0
0.593503 -0.198398 0
0.579147 -0.342131 0
0.623558 -0.335116 0
0.626705 -0.324911 0
0.641127 -0.343371 0
0.656892 -0.339762 0
0.696728 -0.372112 0
0.73956 -0.365671 0
0.759225 -0.379263 0
0.781542 -0.396619 0
0.796481 -0.517101 0
0.821477 -0.513087 0
0.848952 -0.490392 0
0.86532 -0.496332 0
0.897236 -0.512304 0
0.933877 -0.545468 0
0.972359 -0.582081 0
1.23081 -0.514407 0
1.00484 -0.656031 0
1.01814 -0.676896 0
1.04558 -0.702889 0
1.06422 -0.713967 0
1.08246 -0.719385 0
1.14043 -0.738172 0
1.12989 -0.798173 0
1.15636 -0.79323 0
1.21122 -0.842807 0
1.23835 -0.838959 0
1.27945 -0.887236 0
1.28927 -0.848811 0
1.30938 -0.900592 0
1.3496 -0.92951 0
1.35429 -0.938876 0
1.37582 -0.951569 0
1.41611 -0.94278 0
1.44837 -0.963494 0
1.46306 -0.995737 0
1.47131 -1.01039 0
1.51386 -0.998769 0
1.54156 -1.03195 0
1.55547 -1.07893 0
1.58198 -1.0896 0
1.61017 -1.09822 0
1.63706 -1.10008 0
1.6429 -1.11378 0
1.6797 -1.15155 0
1.70883 -1.14315 0
1.72861 -1.13219 0
1.75439 -1.16718 0
1.78339 -1.20091 0
1.81301 -1.18614 0
1.83328 -1.17914 0
1.84583 -1.20853 0
1.8685 -1.2356 0
1.90124 -1.23421 0
1.92573 -1.22145 0
1.9392 -1.22866 0
1.96062 -1.25084 0
1.99456 -1.26097 0
2.02305 -1.2557 0
2.03854 -1.25646 0
2.05457 -1.27031 0
2.08271 -1.28333 0
2.11478 -1.28628 0
2.13866 -1.28346 0
2.15605 -1.28511 0
2.1779 -1.29496 0
2.20732 -1.30588 0
2.23639 -1.30958 0
2.2599 -1.30866 0
2.27976 -1.3094 0
2.30162 -1.31328 0
2.3277 -1.31851 0
2.35624 -1.32361 0
2.38329 -1.32631 0
2.40583 -1.32555 0
2.42724 -1.3251 0
2.45274 -1.32809 0
2.48226 -1.33296 0
</DataArray>
</Points>
<PointData>
<DataArray NumberOfComponents='1' type='Int32' Name='Particle Type' format='ascii'>
0
0
0
0
0
0
0
0
0
0
0
0
0
0
0
0
0
0
0
0
0
0
1
1
1
1
1
1
1
1
1
1
1
1
1
1
1
1
1
1
1
1
1
1
1
1
1
1
1
1
1
1
1
1
1
1
1
1
1
1
1
1
1
1
1
1
1
1
1
1
1
1
1
1
1
1
1
1
1
1
1
1
1
1
1
1
1
1
1
1
1
1
1
1
1
1
1
1
1
1
1
1
1
1
1
1
1
1
1
1
1
1
1
1
1
1
1
1
1
1
1
1
1
1
1
1
1
1
1
1
1
1
1
1
1
1
1
1
1
1
1
1
1
1
1
1
1
1
1
1
1
1
1
1
1
1
1
1
1
1
1
1
1
1
1
1
1
1
1
1
1
1
1
1
1
1
1
1
1
1
1
1
1
1
1
1
1
1
1
1
1
1
1
1
1
1
1
1
1
1
1
1
1
1
1
1
1
1
1
1
1
1
1
1
1
1
1
1
1
1
1
1
1
1
1
1
1
1
1
1
1
1
1
1
1
1
1
1
1
1
1
1
1
1
1
1
1
1
1
1
1
1
1
1
1
1
1
1
1
1
1
1
1
1
1
1
1
1
1
1
1
1
1
1
1
1
1
1
1
1
1
1
1
1
1
1
1
1
1
1
1
1
1
1
1
1
1
1
1
1
1
1
1
1
1
1
1
1
1
1
1
1
1
1
1
1
1
1
1
1
1
1
1
1
1
1
1
1
1
1
1
1
1
1
1
1
1
1
1
1
1
1
1
1
1
1
1
1
1
1
1
1
1
1
1
1
1
1
1
1
1
1
1
1
1
1
1
1
1
1
1
1
1
1
1
1
1
1
1
1
1
1
1
1
1
1
1
1
1
1
1
1
1
1
1
1
1
1
1
1
1
1
1
1
1
1
1
1
1
1
1
1
1
1
1
1
1
1
1
1
1
1
1
1
1
1
1
1
1
1
1
1
1
1
1
1
1
1
1
1
1
1
1
1
1
1
1
1
1
1
1
1
1
1
1
1
1
1
1
1
1
1
1
1
1
1
1
1
1
1
1
1
1
1
1
1
1
1
1
1
1
1
1
1
1
1
1
1
1
1
1
1
1
1
1
1
1
1
1
1
1
1
1
1
1
1
1
1
1
1
1
1
1
1
1
1
1
1
1
1
1
1
1
1
1
1
1
1
1
1
1
1
1
1
1
1
1
1
1
1
1
1
1
1
1
1
1
1
1
1
1
1
1
1
1
1
1
1
1
1
1
1
1
1
1
1
1
1
1
1
1
1
1
1
1
1
1
1
1
1
1
1
1
1
1
1
1
1
1
1
1
1
1
1
1
1
1
1
1
1
1
1
1
1
1
1
1
1
1
1
1
1
1
1
1
1
1
1
1
1
1
1
1
1
1
1
1
1
1
1
1
1
1
1
1
1
1
1
1
1
1
1
1
1
1
1
1
1
1
1
1
1
1
1
1
1
1
1
1
1
1
1
1
1
1
1
1
1
1
1
1
1
1
1
1
1
1
1
1
1
1
1
1
1
1
1
1
1
1
1
1
1
1
1
1
1
1
1
1
1
1
1
1
1
1
1
1
1
1
1
1
1
1
1
1
1
1
1
1
1
1
1
1
1
1
1
1
1
1
1
1
1
1
1
1
1
1
1
1
1
1
1
1
1
1
1
1
1
1
1
1
1
1
1
1
1
1
1
1
1
1
1
1
1
1
1
1
1
1
1
1
1
1
1
1
1
1
1
1
1
1
1
1
1
1
1
1
1
1
1
1
1
1
1
1
1
1
1
1
1
1
1
1
1
1
1
1
1
</DataArray>
<DataArray NumberOfComponents='3' type='Float64' Name='Velocity' format='ascii'>
-0.735997 -0.2641 0
-0.58728 0.035594 0
-1.07722 -0.0829008 0
-0.620877 0.952867 0
-0.788915 -0.18557 0
-0.00889386 0.467799 0
-1.28465 -0.0832856 0
-0.772271 0.333739 0
0.598271 -0.455134 0
-0.569497 -1.09535 0
0.136195 -0.516678 0
-0.245806 -0.396407 0
-0.409616 -0.181202 0
0.376891 -0.837306 0
0.0480942 -1.01038 0
-0.425703 -0.836261 0
-0.272176 -0.263387 0
0.0826538 -0.639002 0
-0.855123 -0.261107 0
0.918981 -0.937343 0
0.0245939 -0.7824 0
-0.237096 -0.00100366 0
-0.100858 -0.844012 0
0.897487 -0.204699 0
0.445943 -1.26411 0
-0.202696 0.581004 0
0.0492179 -1.04394 0
-0.78999 -0.518335 0
0.500456 -0.636363 0
-1.13507 -0.902619 0
-0.00843103 -0.479992 0
-0.276589 -1.78381 0
0.129995 -1.4388 0
-0.665822 -1.21736 0
0.0132508 0.302185 0
-0.406957 -1.14744 0
0.0572738 0.212982 0
0.325141 0.770809 0
0.61438 -0.0668839 0
0.0437371 0.128051 0
-0.362175 -0.0319954 0
0.608583 -0.556244 0
-0.128816 -0.707981 0
-0.596195 -0.959912 0
1.07908 -0.56716 0
0.127387 -0.43507 0
1.27721 -0.357202 0
-0.467648 -0.642884 0
-0.774967 -0.623333 0
0.21504 -0.818531 0
0.450577 0.331043 0
0.989457 -0.122916 0
0.343336 -0.707373 0
0.623539 -0.76915 0
0.102199 -1.16619 0
0.329292 -0.967881 0
0.764736 -1.03719 0
-0.929714 -0.165868 0
-0.838201 -0.312654 0
0.234456 0.191554 0
-0.863148 -0.0722496 0
0.410738 -0.784388 0
-0.248308 -0.264049 0
0.849928 -0.904206 0
-0.267531 -0.287336 0
-0.597172 -0.392881 0
0.176196 -0.103808 0
-0.00217899 -0.31726 0
0.151544 0.259894 0
-0.0464248 -0.182532 0
0.67707 -0.269338 0
-0.148684 -0.154469 0
-0.414139 -0.946051 0
0.111409 -0.0710061 0
0.464886 0.316363 0
-0.56296 -0.365849 0
0.162746 -0.738916 0
-0.318475 0.427966 0
-0.332499 0.0254012 0
0.411503 -0.865745 0
-0.0198313 -0.468045 0
-0.115088 -0.289968 0
0.202956 -0.490987 0
0.331853 -0.434453 0
0.0264898 -0.127893 0
-0.450426 -0.120492 0
-0.105146 -0.433199 0
0.183981 -0.370893 0
0.648254 -0.402508 0
-0.255002 0.0125174 0
-0.352832 -0.177427 0
0.0948781 -0.507468 0
0.320337 -0.519314 0
0.0983644 -0.24228 0
-0.140976 -0.0433911 0
-0.136848 -0.175886 0
0.00914513 -0.444722 0
0.0776854 -0.353838 0
0.0484036 -0.11443 0
-0.0153405 -0.0492287 0
-0.110909 -0.264708 0
-0.116833 -0.404328 0
0.00203773 -0.341308 0
0.10524 -0.206163 0
0.0368995 -0.133286 0
-0.107145 -0.154549 0
-0.0927267 -0.200214 0
0.0434958 -0.254311 0
-0.0382611 0.856299 0
0.460863 0.523443 0
-0.86171 0.281616 0
0.341358 -0.785854 0
0.0511717 0.148117 0
0.840334 0.0741693 0
-0.597935 -0.688366 0
-0.694589 0.146016 0
-0.371403 -0.432832 0
0.0733369 1.01733 0
0.29956 0.567321 0
0.394672 1.05291 0
-0.423373 -0.305327 0
-0.244554 0.617036 0
-0.593148 -2.00093 0
0.0797316 0.0471407 0
0.243923 -0.372784 0
0.0930158 -1.67718 0
0.0267797 -0.0770781 0
-1.10151 -1.63322 0
-0.130974 -0.837517 0
0.0197092 -1.40131 0
-0.714698 -0.299434 0
0.293413 -0.442602 0
0.0788116 0.242856 0
0.487189 -0.727641 0
-0.762736 -1.32081 0
-0.227525 0.379416 0
-0.455059 0.980573 0
-0.193954 0.899024 0
0.279861 0.479829 0
0.319185 -0.390292 0
0.0475515 -0.380642 0
-0.529323 -0.731755 0
-0.43647 0.465675 0
-0.428793 -0.797697 0
0.442511 -0.326275 0
-0.26073 -0.202749 0
-0.00775555 -0.459702 0
-0.496058 0.230349 0
-0.114336 0.366872 0
-0.42307 0.0672271 0
-0.0944069 -0.731669 0
0.686327 -0.364397 0
0.506899 0.184763 0
-2.00591 -0.634749 0
-0.677409 -1.20188 0
0.19805 1.86838 0
0.297074 -1.57657 0
-0.194584 -0.510847 0
-0.46528 0.283513 0
0.919977 -0.119486 0
-0.231358 -0.145095 0
-0.241587 -0.577482 0
0.00279401 -0.344084 0
-0.044575 0.365279 0
0.646877 -0.854326 0
-0.414028 -0.634161 0
-0.369028 -0.652739 0
-0.631624 -0.219683 0
0.554485 0.2062 0
-0.0489692 -0.521415 0
0.889802 -0.695449 0
-0.215231 -0.550985 0
-0.153197 -0.0103422 0
0.294344 -0.450972 0
0.4132 -0.220113 0
-0.779412 -0.415834 0
0.329459 -0.304175 0
0.0608266 -0.115165 0
-0.525206 -0.0837059 0
0.475076 -0.465193 0
-0.30318 -0.40488 0
-0.0411011 -0.647936 0
0.355993 -0.388135 0
0.146481 -0.0597012 0
-0.0362711 -0.173261 0
-0.160523 -0.496783 0
-0.109703 -0.498042 0
0.250535 -0.268613 0
0.280766 -0.0889286 0
-0.0904812 -0.111953 0
-0.215364 -0.359057 0
0.0456837 -0.488911 0
0.190986 -0.358419 0
0.0656837 -0.143578 0
-0.0957503 -0.0869369 0
-0.0755851 -0.300073 0
0.0170725 -0.39914 0
0.0506771 -0.309313 0
0.0138141 -0.0943315 0
-0.044688 -0.0852485 0
-0.0713994 -0.270916 0
-0.0697843 -0.385528 0
-0.0112724 -0.347933 0
0.0570253 -0.231592 0
0.032213 -0.11961 0
-0.0521787 -0.119738 0
-0.071973 -0.239326 0
-0.0144396 -0.356988 0
0.100935 -0.354959 0
0.377704 -0.880101 0
-0.0890683 -0.863265 0
-0.304183 0.132961 0
-0.0863902 -0.470968 0
0.290664 -0.0775132 0
-0.227086 0.152951 0
-0.563172 -0.576999 0
-0.0872488 0.559389 0
0.284676 0.70662 0
-0.560601 0.551929 0
0.649957 0.36764 0
-0.61539 0.704244 0
-0.247523 -0.449071 0
0.356405 0.12654 0
0.00527586 -1.06508 0
1.30063 -0.94519 0
0.886737 -0.199687 0
-0.298276 0.653736 0
0.314705 -0.911959 0
0.182953 -0.628265 0
0.421955 -1.21993 0
0.0849032 -1.62039 0
0.633299 -1.17064 0
-0.514564 0.0912643 0
-0.116096 -0.172735 0
-0.467075 -0.686108 0
0.892572 -0.530061 0
0.141582 0.378376 0
0.0423185 -0.357978 0
0.783685 -0.653175 0
0.694921 -0.0242136 0
-0.153695 0.20047 0
0.692104 -1.07065 0
-1.16351 -0.973363 0
-0.727759 -1.15174 0
0.0433316 0.290782 0
-0.00154543 0.772864 0
0.439622 -0.770957 0
-0.832554 -0.288434 0
0.312834 -1.18238 0
0.463666 0.988214 0
-0.271085 -0.061118 0
-0.459761 -0.596329 0
0.489819 0.314931 0
1.74119 -0.619765 0
-0.134845 -0.314668 0
-0.191664 -0.430522 0
-0.10852 -0.268172 0
-0.290004 -0.812398 0
0.20445 0.232378 0
0.260253 -0.504318 0
0.788837 0.012485 0
-0.956827 -0.55251 0
0.200161 -0.756247 0
0.233858 -0.0966805 0
-0.130392 0.139181 0
-0.00682596 -0.263277 0
-0.0247862 -0.931552 0
0.748564 -1.40777 0
0.0671695 -0.751781 0
-0.597317 -0.14789 0
0.376296 -0.137511 0
0.136521 0.0879925 0
-0.163997 -1.00621 0
-0.379278 0.0053899 0
-0.182779 -0.729302 0
0.677084 0.447697 0
0.158412 -0.798578 0
-0.116618 -0.606201 0
-0.43103 0.24699 0
-0.0727995 -0.0849874 0
0.169251 -0.732446 0
-0.0538763 -0.725621 0
0.0441501 -0.208126 0
0.284736 0.0672711 0
0.0773477 -0.237068 0
-0.188844 -0.689247 0
-0.0507746 -0.457298 0
0.153395 -0.0400882 0
0.166213 -0.104212 0
0.028251 -0.351222 0
-0.108114 -0.411312 0
-0.0328167 -0.420975 0
0.134603 -0.242501 0
0.0832326 -0.0405503 0
-0.0974849 -0.151274 0
-0.079123 -0.419509 0
0.0775119 -0.418388 0
0.0692105 -0.19134 0
-0.0489748 -0.0961694 0
-0.0798921 -0.153872 0
-0.0497332 -0.248311 0
-0.0255245 -0.36739 0
-0.00826522 -0.351948 0
0.0185975 -0.231127 0
0.0293059 -0.10655 0
-0.00744278 -0.107302 0
-0.0525899 -0.246682 0
-0.0606338 -0.394357 0
0.558178 0.220886 0
0.238631 0.745408 0
0.440908 -0.233501 0
-0.00531402 1.0587 0
0.457995 0.230014 0
-1.15637 -0.733302 0
-0.905505 -0.192813 0
-0.243327 0.468078 0
-0.0225195 0.248016 0
0.534838 0.343409 0
1.50098 0.183797 0
0.8209 -0.0791282 0
0.273584 0.526124 0
-1.04921 1.08102 0
-0.214638 0.569232 0
-0.338103 -0.953894 0
-0.0837007 -1.064 0
0.0462671 -1.24476 0
-0.802807 -1.22433 0
-0.269004 -0.547088 0
-0.835894 -1.41335 0
1.80393 0.360515 0
0.540434 -1.05372 0
-0.471878 -1.04601 0
0.81114 -1.20627 0
-0.364903 -0.0414163 0
-0.0426559 -0.570778 0
0.165736 -1.38594 0
0.225905 -0.15604 0
-0.0153888 0.132347 0
-0.845605 -0.659785 0
-0.587848 0.0394887 0
0.502906 -0.0508934 0
-1.51306 -0.60632 0
0.0264466 -0.552285 0
0.186272 -1.19119 0
-0.220709 0.0568086 0
0.437946 -0.993962 0
0.390154 -0.890062 0
-0.281154 -0.576547 0
0.321232 -0.161525 0
-0.356716 -0.445523 0
0.927993 0.0969323 0
0.642255 -0.422136 0
0.322349 0.770335 0
-0.631808 -0.153955 0
0.472572 -1.32273 0
0.213166 -0.683481 0
0.0647985 -0.473649 0
0.528447 0.0091979 0
-0.838536 -0.373769 0
-0.191885 -0.528711 0
0.0029729 -0.108172 0
0.063667 -0.427833 0
-0.47168 -0.791935 0
-0.227684 -0.348011 0
0.989052 0.130741 0
-0.712232 -0.281135 0
-0.275452 -0.0934235 0
0.101422 0.0070104 0
-0.223992 -0.508539 0
0.800661 -0.943048 0
-0.0488245 -0.165532 0
-0.388168 -0.199032 0
0.270377 0.0829704 0
-0.079393 -0.65364 0
-0.42173 -0.559735 0
0.364128 -0.0877789 0
0.699977 -0.0690051 0
-0.314208 -0.833304 0
-0.282145 -0.228553 0
-0.0305275 0.417972 0
0.102853 -0.777901 0
0.0562601 -1.01002 0
-0.080305 0.105353 0
0.12887 0.0820782 0
0.265013 -0.501703 0
-0.0926544 -0.567759 0
-0.1887 -0.37278 0
0.134927 -0.0982462 0
0.19759 -0.0780459 0
0.0221484 -0.424683 0
-0.0577034 -0.509432 0
-0.0336131 -0.308409 0
0.0588136 -0.13565 0
0.0883535 -0.0493173 0
-0.029551 -0.226658 0
-0.0852486 -0.422317 0
0.0412446 -0.403185 0
0.0857479 -0.169855 0
-0.0429581 -0.0685665 0
-0.106479 -0.186608 0
-0.039047 -0.289377 0
0.00285852 -0.338332 0
-0.0123743 -0.300398 0
-0.00912946 -0.210583 0
0.0249085 -0.12265 0
0.0254063 -0.12168 0
-0.0326058 -0.237277 0
-0.100356 -0.365331 0
0.183361 -0.460487 0
0.415705 0.211145 0
-0.070676 0.318901 0
-0.321846 -1.16874 0
0.414797 0.887649 0
0.810154 -0.148639 0
-0.680941 -0.426954 0
0.478521 0.411359 0
0.970778 0.78676 0
-0.625371 0.233111 0
0.44632 0.40949 0
-0.280493 -0.571994 0
-0.486663 0.216296 0
0.67528 -0.091458 0
0.515237 0.379814 0
-0.833914 0.807013 0
0.217503 -0.451883 0
0.225435 -0.570084 0
-0.682182 -1.20629 0
0.685681 -0.929865 0
-0.471712 -0.7924 0
-0.254758 -0.52239 0
-0.133738 -0.623629 0
-0.085192 -1.0681 0
0.503802 -0.896491 0
1.11382 0.447253 0
-1.54073 -1.26261 0
0.770948 -0.623282 0
-0.725582 -1.27896 0
-0.336386 0.220185 0
-0.261862 -0.269564 0
0.20578 -0.885969 0
0.569484 0.104127 0
0.772382 -0.652047 0
-0.187756 -0.329896 0
0.295369 -0.26232 0
0.189515 -0.325022 0
0.650883 -0.148883 0
-0.0259637 -0.659857 0
0.0812731 -0.721174 0
-0.846278 -0.598008 0
0.533792 -0.589264 0
0.641735 -0.657613 0
-0.181475 -0.575959 0
0.69931 -1.00588 0
0.461237 1.07292 0
-1.68743 -1.18006 0
0.0185915 0.647679 0
-0.128022 -0.594081 0
-0.926729 0.17171 0
-1.39232 0.259538 0
0.1327 -0.0812485 0
0.155793 -0.124695 0
0.419104 -0.253847 0
-0.0601013 -0.363555 0
-0.278756 -1.26873 0
-0.780524 -0.0431645 0
0.0738653 0.488502 0
0.675415 -0.863791 0
-0.078135 -0.415715 0
-0.656591 0.133307 0
-0.00805508 0.498087 0
0.193632 -0.267791 0
0.0279118 0.108767 0
0.223742 0.114923 0
0.0523056 -1.02042 0
-0.74511 -0.546619 0
-0.0381821 0.311174 0
0.646142 -0.616295 0
-0.27846 -0.558397 0
-0.241054 0.043509 0
0.283559 -0.176242 0
0.083515 -0.650073 0
-0.187149 -0.548194 0
-0.0281326 -0.169124 0
0.167133 -0.0528837 0
0.174791 -0.374488 0
-0.000298335 -0.553191 0
-0.115353 -0.35882 0
0.0180995 -0.109877 0
0.170527 -0.216316 0
0.118964 -0.384204 0
-0.0513933 -0.423622 0
-0.0909315 -0.328108 0
0.0394792 -0.110435 0
0.11063 -0.0457368 0
0.00153214 -0.257132 0
-0.0702539 -0.462788 0
0.00869564 -0.326713 0
0.0546571 -0.101251 0
-0.0254011 -0.113912 0
-0.0789934 -0.261308 0
-0.027806 -0.319805 0
-0.00699935 -0.284311 0
-0.0339225 -0.234859 0
-0.0246658 -0.190724 0
0.0311517 -0.15905 0
0.0516786 -0.173518 0
-0.0210117 -0.243028 0
-0.129538 -0.302023 0
0.293846 -0.337276 0
-0.235038 0.660454 0
-0.791255 0.718869 0
-0.32144 -0.12613 0
0.0701785 0.0299609 0
-0.410781 -1.06808 0
0.0457951 0.648914 0
-0.0222802 0.0576672 0
-0.0486954 0.578219 0
0.471872 1.2038 0
-0.484347 0.879708 0
0.0918211 1.00966 0
-0.523862 1.30913 0
0.504591 0.535528 0
1.07097 0.771715 0
0.0220103 0.292887 0
-0.545035 0.372625 0
0.146124 -0.395291 0
-0.247665 -0.992955 0
0.284816 -1.32721 0
-0.201028 -1.34106 0
-0.396776 -0.726471 0
0.173638 -0.754113 0
0.608036 0.450795 0
0.684074 0.067702 0
-0.604583 -1.46447 0
0.581151 0.115242 0
-0.227279 -1.60839 0
0.0474494 0.405577 0
0.492332 0.106678 0
-0.512192 -1.00504 0
-0.143877 -0.018008 0
0.738764 0.108956 0
-0.374067 -0.0911484 0
-0.210226 -0.050919 0
-0.21117 -0.0909281 0
0.00620183 -0.146831 0
-0.170613 -0.366618 0
-0.343612 -0.309023 0
0.266707 -0.70863 0
-0.427916 -0.0613741 0
-0.127208 -0.073618 0
0.606914 -1.71504 0
0.177087 0.166361 0
0.53186 -0.378878 0