<?xml version='1.0' encoding='UTF-8'?>
<VTKFile byte_order='LittleEndian' version='0.1' type = 'UnstructuredGrid'>
<UnstructuredGrid>
<FieldData>
<DataArray type='Float64' Name='Time' NumberOfComponents='1' NumberOfTuples='1' format='ascii'>
2.521
</DataArray>
</FieldData>
<Piece NumberOfCells='808' NumberOfPoints='808'>
<Points>
<DataArray NumberOfComponents='3' type='Float64' Name='position' format='ascii'>
0 0 0
0 0.025 0
0 0.05 0
0 0.075 0
0 0.1 0
0 0.125 0
0 0.15 0
0 0.175 0
0.025 0 0
0.05 0 0
0.075 0 0
0.1 0 0
0.125 0 0
0.15 0 0
0.175 0 0
0.2 0 0
0.225 0 0
0.25 0 0
0.275 0 0
0.3 0 0
0.323476 -0.00597075 0
0.340591 -0.00807709 0
0.372399 -0.044792 0
0.401231 -0.0710549 0
0.427768 -0.0885795 0
0.451418 -0.10288 0
0.476744 -0.120304 0
0.503231 -0.133489 0
0.526939 -0.148773 0
0.553342 -0.165166 0
0.578273 -0.175831 0
0.602625 -0.189813 0
0.626662 -0.203122 0
0.652418 -0.216596 0
0.67821 -0.230133 0
0.701053 -0.242434 0
0.727826 -0.254645 0
0.751686 -0.265912 0
0.774621 -0.278506 0
0.802648 -0.291609 0
0.82707 -0.302848 0
0.850303 -0.314153 0
0.877053 -0.32625 0
0.902377 -0.337266 0
0.92616 -0.347741 0
0.950926 -0.358574 0
0.976412 -0.368911 0
1.00205 -0.379081 0
1.02688 -0.389585 0
1.05128 -0.399341 0
1.07678 -0.408323 0
1.10247 -0.417843 0
1.12685 -0.427663 0
1.15111 -0.436615 0
1.17636 -0.445117 0
1.20171 -0.453934 0
1.2264 -0.462652 0
1.25081 -0.47109 0
1.27552 -0.479686 0
1.30072 -0.488164 0
1.32608 -0.49593 0
1.35105 -0.503214 0
1.37545 -0.510545 0
1.39978 -0.51784 0
1.42468 -0.5247 0
1.4502 -0.531138 0
1.47577 -0.537492 0
1.50092 -0.543887 0
1.52571 -0.550077 0
1.5505 -0.55583 0
1.57551 -0.561146 0
1.6007 -0.566157 0
1.62589 -0.570937 0
1.65103 -0.575517 0
1.67616 -0.579954 0
1.7013 -0.58434 0
1.7264 -0.588771 0
1.75141 -0.593236 0
1.77628 -0.597631 0
1.80103 -0.601856 0
1.82575 -0.605863 0
1.85051 -0.609645 0
1.87538 -0.613191 0
1.90037 -0.616471 0
1.92547 -0.619449 0
1.95063 -0.622112 0
1.97582 -0.624471 0
2.001 -0.626548 0
2.02615 -0.628362 0
2.05128 -0.629921 0
2.07638 -0.631228 0
2.10146 -0.632286 0
2.1265 -0.633111 0
2.15151 -0.633728 0
2.17649 -0.634173 0
2.20143 -0.634481 0
2.22635 -0.634686 0
2.25123 -0.634816 0
2.27609 -0.634893 0
2.30095 -0.634932 0
2.3258 -0.634945 0
2.35066 -0.63494 0
2.37553 -0.634925 0
2.40042 -0.634904 0
2.42533 -0.634881 0
2.45026 -0.634859 0
2.47521 -0.634842 0
2.50019 -0.634831 0
0.0245232 0.0250436 0
0.0497971 0.0250259 0
0.0750264 0.0241098 0
0.0990004 0.0225036 0
0.123396 0.0237316 0
0.149011 0.0217936 0
0.173985 0.0216012 0
0.197634 0.0194375 0
0.224918 0.0192468 0
0.249664 0.0154596 0
0.272178 0.0134711 0
0.300236 0.0126614 0
0.326549 0.00418413 0
0.35051 -0.00934332 0
0.377004 -0.0271237 0
0.40019 -0.0450683 0
0.42564 -0.0637065 0
0.452016 -0.0811783 0
0.478072 -0.0982964 0
0.502782 -0.110688 0
0.526721 -0.125044 0
0.552404 -0.139636 0
0.576974 -0.153114 0
0.601951 -0.167206 0
0.628678 -0.180654 0
0.653344 -0.191069 0
0.675367 -0.202776 0
0.700953 -0.218281 0
0.728701 -0.230749 0
0.751782 -0.241959 0
0.775689 -0.255186 0
0.802502 -0.267304 0
0.826778 -0.278065 0
0.850664 -0.289753 0
0.876366 -0.301424 0
0.90158 -0.312337 0
0.926451 -0.323602 0
0.951582 -0.334637 0
0.976595 -0.344645 0
1.00172 -0.354338 0
1.02655 -0.364562 0
1.05125 -0.3746 0
1.07679 -0.383967 0
1.10239 -0.393364 0
1.12691 -0.402908 0
1.15123 -0.411987 0
1.17632 -0.420693 0
1.20156 -0.429308 0
1.22629 -0.4378 0
1.25083 -0.446314 0
1.27565 -0.454992 0
1.30075 -0.463402 0
1.32589 -0.471111 0
1.35082 -0.478405 0
1.37545 -0.485734 0
1.40002 -0.493022 0
1.4249 -0.49993 0
1.45019 -0.506446 0
1.4756 -0.512809 0
1.50078 -0.519105 0
1.5257 -0.525191 0
1.55057 -0.530929 0
1.57558 -0.536286 0
1.60071 -0.541322 0
1.62588 -0.546091 0
1.65102 -0.550649 0
1.67616 -0.55509 0
1.70128 -0.559485 0
1.72637 -0.563896 0
1.75136 -0.568311 0
1.77623 -0.572653 0
1.80101 -0.576845 0
1.82576 -0.580849 0
1.85054 -0.584649 0
1.87542 -0.588218 0
1.9004 -0.591517 0
1.92549 -0.594507 0
1.95064 -0.597175 0
1.97582 -0.59953 0
2.00099 -0.601598 0
2.02615 -0.6034 0
2.05127 -0.604945 0
2.07638 -0.606239 0
2.10145 -0.607286 0
2.1265 -0.6081 0
2.15151 -0.608709 0
2.17649 -0.609144 0
2.20143 -0.609444 0
2.22634 -0.609642 0
2.25123 -0.609766 0
2.27609 -0.609839 0
2.30095 -0.609877 0
2.3258 -0.609892 0
2.35066 -0.609892 0
2.37553 -0.609882 0
2.40042 -0.609868 0
2.42533 -0.609853 0
2.45027 -0.609839 0
2.47522 -0.609828 0
2.50019 -0.609821 0
0.0254601 0.0476418 0
0.0493681 0.0465615 0
0.0739025 0.046524 0
0.098983 0.045453 0
0.123241 0.0435944 0
0.149222 0.041449 0
0.173665 0.0415446 0
0.197534 0.0390054 0
0.223778 0.0400021 0
0.250969 0.0377988 0
0.271891 0.0354692 0
0.300426 0.0251509 0
0.329371 0.0185537 0
0.348044 0.00754783 0
0.378559 -0.01325 0
0.402844 -0.0255277 0
0.42652 -0.0408115 0
0.452861 -0.0593643 0
0.478172 -0.0711416 0
0.501546 -0.0859752 0
0.527773 -0.0999854 0
0.553368 -0.115047 0
0.577466 -0.127928 0
0.601797 -0.140428 0
0.626767 -0.155242 0
0.652863 -0.168785 0
0.67766 -0.180363 0
0.701887 -0.192637 0
0.726655 -0.20505 0
0.751222 -0.217818 0
0.777025 -0.231249 0
0.802503 -0.242066 0
0.826236 -0.252881 0
0.85091 -0.265502 0
0.876483 -0.27684 0
0.901431 -0.287633 0
0.926453 -0.299197 0
0.95165 -0.310102 0
0.976613 -0.319761 0
1.00163 -0.329473 0
1.02647 -0.33956 0
1.05123 -0.34965 0
1.07672 -0.359407 0
1.10232 -0.368691 0
1.12695 -0.377909 0
1.15131 -0.387199 0
1.17631 -0.396109 0
1.20147 -0.404512 0
1.22622 -0.412827 0
1.25084 -0.421347 0
1.2757 -0.429996 0
1.30072 -0.438378 0
1.32575 -0.446169 0
1.35066 -0.453551 0
1.37545 -0.46086 0
1.40019 -0.468073 0
1.42508 -0.475002 0
1.45021 -0.481602 0
1.47548 -0.488008 0
1.50067 -0.494271 0
1.52569 -0.500278 0
1.55063 -0.505961 0
1.57564 -0.511339 0
1.60073 -0.516417 0
1.62587 -0.521182 0
1.65101 -0.525726 0
1.67615 -0.530169 0
1.70127 -0.534567 0
1.72634 -0.538961 0
1.75132 -0.543339 0
1.7762 -0.547643 0
1.801 -0.551814 0
1.82576 -0.555819 0
1.85056 -0.559635 0
1.87544 -0.563226 0
1.90042 -0.566544 0
1.9255 -0.569548 0
1.95065 -0.572223 0
1.97582 -0.57458 0
2.00099 -0.576643 0
2.02614 -0.578436 0
2.05127 -0.57997 0
2.07637 -0.581252 0
2.10145 -0.582289 0
2.12649 -0.583094 0
2.15151 -0.583693 0
2.17648 -0.584119 0
2.20143 -0.584411 0
2.22634 -0.584601 0
2.25123 -0.584719 0
2.27609 -0.584789 0
2.30095 -0.584826 0
2.3258 -0.584843 0
2.35066 -0.584847 0
2.37554 -0.584843 0
2.40043 -0.584836 0
2.42534 -0.584827 0
2.45027 -0.584819 0
2.47522 -0.584813 0
2.5002 -0.584809 0
0.0246336 0.0745386 0
0.0482932 0.0741278 0
0.0744767 0.0739703 0
0.100338 0.0742537 0
0.123626 0.0720865 0
0.148558 0.0752607 0
0.174412 0.0698412 0
0.198177 0.0696379 0
0.222601 0.068184 0
0.251327 0.0585034 0
0.27474 0.0601273 0
0.298801 0.0490071 0
0.331588 0.0401033 0
0.352838 0.0228639 0
0.378715 0.011797 0
0.403949 -0.00176622 0
0.427862 -0.0200216 0
0.45221 -0.0324051 0
0.478042 -0.045583 0
0.501146 -0.0613745 0
0.527877 -0.0781727 0
0.552991 -0.0873832 0
0.57641 -0.103922 0
0.603142 -0.118182 0
0.628065 -0.128405 0
0.651747 -0.143373 0
0.677587 -0.156855 0
0.702697 -0.168638 0
0.726267 -0.180683 0
0.750955 -0.192967 0
0.776924 -0.205489 0
0.801968 -0.216844 0
0.826243 -0.228821 0
0.851396 -0.241047 0
0.876767 -0.252212 0
0.9016 -0.263297 0
0.926414 -0.274327 0
0.951324 -0.284916 0
0.976429 -0.294986 0
1.0017 -0.304718 0
1.02661 -0.314699 0
1.05135 -0.324877 0
1.07662 -0.334639 0
1.10208 -0.343778 0
1.12689 -0.352974 0
1.15143 -0.362388 0
1.17638 -0.371365 0
1.20143 -0.379707 0
1.22618 -0.3879 0
1.25083 -0.396328 0
1.27568 -0.404914 0
1.30067 -0.413299 0
1.32565 -0.421195 0
1.35056 -0.428686 0
1.37543 -0.435995 0
1.40029 -0.443143 0
1.42522 -0.450043 0
1.45027 -0.456712 0
1.47543 -0.463196 0
1.50059 -0.469448 0
1.52567 -0.475387 0
1.55067 -0.481023 0
1.57568 -0.486396 0
1.60075 -0.491486 0
1.62587 -0.496251 0
1.65101 -0.500789 0
1.67615 -0.50523 0
1.70127 -0.509624 0
1.72633 -0.514001 0
1.7513 -0.518351 0
1.77617 -0.522628 0
1.80098 -0.526787 0
1.82576 -0.530796 0
1.85057 -0.534627 0
1.87545 -0.538239 0
1.90044 -0.541576 0
1.92551 -0.544596 0
1.95065 -0.54728 0
1.97582 -0.549639 0
2.00099 -0.551698 0
2.02614 -0.553482 0
2.05127 -0.555006 0
2.07637 -0.556277 0
2.10145 -0.557302 0
2.1265 -0.558095 0
2.15151 -0.558684 0
2.17649 -0.5591 0
2.20143 -0.559381 0
2.22634 -0.559563 0
2.25123 -0.559674 0
2.27609 -0.55974 0
2.30095 -0.559776 0
2.32581 -0.559794 0
2.35067 -0.559802 0
2.37554 -0.559804 0
2.40043 -0.559803 0
2.42534 -0.559801 0
2.45027 -0.559798 0
2.47523 -0.559796 0
2.5002 -0.559795 0
0.023655 0.0987986 0
0.0488357 0.0967655 0
0.0753774 0.0947152 0
0.0987992 0.093784 0
0.122427 0.0926302 0
0.148151 0.0931003 0
0.173838 0.0899323 0
0.200034 0.0882204 0
0.224107 0.0859635 0
0.250399 0.0785976 0
0.27573 0.0732837 0
0.298518 0.0681372 0
0.328634 0.0591987 0
0.351708 0.0453635 0
0.377766 0.0344955 0
0.403429 0.0199529 0
0.427478 0.00402302 0
0.453068 -0.00653263 0
0.478565 -0.0238992 0
0.502244 -0.0389103 0
0.527826 -0.0529861 0
0.553192 -0.0651539 0
0.576862 -0.0792308 0
0.602597 -0.0926894 0
0.628071 -0.1031 0
0.651325 -0.117279 0
0.676326 -0.131577 0
0.702777 -0.145011 0
0.727503 -0.156666 0
0.751507 -0.16776 0
0.776385 -0.180113 0
0.801435 -0.192424 0
0.82632 -0.204468 0
0.851564 -0.216461 0
0.876815 -0.227751 0
0.901678 -0.238384 0
0.926411 -0.249149 0
0.951226 -0.259935 0
0.976323 -0.270298 0
1.00168 -0.280195 0
1.02677 -0.290055 0
1.0515 -0.300024 0
1.0765 -0.309764 0
1.1018 -0.318937 0
1.12679 -0.32803 0
1.15155 -0.337482 0
1.17647 -0.346577 0
1.20141 -0.354897 0
1.22613 -0.363016 0
1.2508 -0.371354 0
1.27565 -0.379842 0
1.30062 -0.388222 0
1.32557 -0.396241 0
1.35048 -0.403835 0
1.37539 -0.411129 0
1.40034 -0.418217 0
1.42531 -0.425118 0
1.45033 -0.431843 0
1.47542 -0.438375 0
1.50056 -0.444629 0
1.52566 -0.45053 0
1.55069 -0.456117 0
1.5757 -0.461462 0
1.60075 -0.466548 0
1.62587 -0.471319 0
1.65101 -0.475858 0
1.67616 -0.480293 0
1.70127 -0.484676 0
1.72631 -0.489037 0
1.75128 -0.493366 0
1.77616 -0.497624 0
1.80097 -0.501773 0
1.82575 -0.505786 0
1.85057 -0.509632 0
1.87545 -0.513264 0
1.90044 -0.516622 0
1.92552 -0.519658 0
1.95065 -0.52235 0
1.97582 -0.52471 0
2.00099 -0.526764 0
2.02614 -0.52854 0
2.05127 -0.530054 0
2.07638 -0.531313 0
2.10145 -0.532325 0
2.1265 -0.533107 0
2.15151 -0.533682 0
2.17649 -0.534086 0
2.20143 -0.534355 0
2.22634 -0.534527 0
2.25123 -0.53463 0
2.2761 -0.534691 0
2.30095 -0.534725 0
2.32581 -0.534745 0
2.35067 -0.534757 0
2.37554 -0.534764 0
2.40043 -0.53477 0
2.42534 -0.534774 0
2.45027 -0.534777 0
2.47523 -0.534779 0
2.5002 -0.534781 0
0.0247461 0.122319 0
0.0496297 0.120785 0
0.0741684 0.119997 0
0.0982671 0.11735 0
0.125033 0.113827 0
0.150138 0.108694 0
0.174193 0.109816 0
0.20132 0.102713 0
0.222331 0.101873 0
0.249564 0.103275 0
0.276834 0.0934481 0
0.300416 0.0870162 0
0.326751 0.0773839 0
0.351815 0.067703 0
0.377837 0.0547715 0
0.403621 0.0416682 0
0.427833 0.0254886 0
0.45313 0.0142516 0
0.477891 -0.00281517 0
0.502141 -0.0132079 0
0.528402 -0.0273216 0
0.552792 -0.0404934 0
0.577214 -0.0508699 0
0.601937 -0.0686102 0
0.627394 -0.0813262 0
0.652123 -0.0927158 0
0.676677 -0.10691 0
0.702487 -0.119058 0
0.727269 -0.130459 0
0.751422 -0.14378 0
0.776656 -0.156829 0
0.801866 -0.167998 0
0.826432 -0.179307 0
0.851192 -0.191383 0
0.87639 -0.203008 0
0.901626 -0.213618 0
0.926605 -0.223974 0
0.951387 -0.235171 0
0.976341 -0.245943 0
1.00158 -0.25554 0
1.02672 -0.265283 0
1.05156 -0.275208 0
1.07643 -0.284969 0
1.10161 -0.294177 0
1.12677 -0.303115 0
1.15167 -0.312455 0
1.17651 -0.321644 0
1.20137 -0.330132 0
1.2261 -0.33823 0
1.2508 -0.346399 0
1.27564 -0.354799 0
1.30058 -0.363201 0
1.32549 -0.371273 0
1.35039 -0.378934 0
1.37535 -0.38626 0
1.40035 -0.393329 0
1.42536 -0.400227 0
1.45038 -0.406989 0
1.47545 -0.413546 0
1.50056 -0.419799 0
1.52566 -0.425681 0
1.55069 -0.431224 0
1.57569 -0.436529 0
1.60074 -0.441611 0
1.62585 -0.446391 0
1.65102 -0.450934 0
1.67617 -0.45536 0
1.70127 -0.459726 0
1.72631 -0.464071 0
1.75127 -0.468384 0
1.77615 -0.472626 0
1.80096 -0.476765 0
1.82574 -0.48078 0
1.85055 -0.484643 0
1.87544 -0.4883 0
1.90043 -0.491682 0
1.92551 -0.494734 0
1.95065 -0.497433 0
1.97582 -0.499793 0
2.00099 -0.501841 0
2.02614 -0.503608 0
2.05127 -0.505112 0
2.07638 -0.506359 0
2.10146 -0.507359 0
2.12651 -0.508127 0
2.15152 -0.508688 0
2.1765 -0.509078 0
2.20144 -0.509334 0
2.22635 -0.509493 0
2.25123 -0.509588 0
2.2761 -0.509643 0
2.30095 -0.509676 0
2.32581 -0.509696 0
2.35067 -0.509712 0
2.37554 -0.509725 0
2.40043 -0.509737 0
2.42534 -0.509747 0
2.45027 -0.509756 0
2.47522 -0.509763 0
2.5002 -0.509767 0
0.0244463 0.148149 0
0.0490533 0.146982 0
0.0731985 0.147731 0
0.0988233 0.145488 0
0.123036 0.145544 0
0.148354 0.145914 0
0.175529 0.142689 0
0.199823 0.140557 0
0.22646 0.134433 0
0.251355 0.126758 0
0.275101 0.123177 0
0.303571 0.113468 0
0.326909 0.104607 0
0.354517 0.0929029 0
0.378718 0.0806383 0
0.404258 0.0663915 0
0.428943 0.0533269 0
0.452738 0.0374807 0
0.477688 0.0267888 0
0.502351 0.0119624 0
0.526772 -0.000761665 0
0.552219 -0.0165383 0
0.577918 -0.0326917 0
0.602359 -0.0425742 0
0.627464 -0.0550435 0
0.652768 -0.0698735 0
0.677154 -0.0823675 0
0.701797 -0.09381 0
0.726697 -0.10599 0
0.751494 -0.119248 0
0.776651 -0.132569 0
0.801929 -0.143529 0
0.826717 -0.154284 0
0.851221 -0.166383 0
0.876104 -0.178179 0
0.901472 -0.188804 0
0.926742 -0.199471 0
0.951524 -0.210705 0
0.976292 -0.221373 0
1.00143 -0.230747 0
1.02659 -0.24038 0
1.0515 -0.250664 0
1.07644 -0.260402 0
1.10162 -0.269376 0
1.12679 -0.278251 0
1.15171 -0.28748 0
1.17651 -0.296695 0
1.20131 -0.30538 0
1.22605 -0.3135 0
1.25082 -0.321533 0
1.27566 -0.329842 0
1.30052 -0.338243 0
1.32539 -0.346348 0
1.35032 -0.354041 0
1.37533 -0.361411 0
1.40035 -0.36851 0
1.42536 -0.375394 0
1.45039 -0.382142 0
1.47548 -0.388735 0
1.5006 -0.394998 0
1.52567 -0.40083 0
1.55067 -0.406331 0
1.57566 -0.411622 0
1.6007 -0.416691 0
1.62584 -0.421484 0
1.65102 -0.426044 0
1.67618 -0.43045 0
1.70129 -0.434792 0
1.72632 -0.439122 0
1.75128 -0.443422 0
1.77616 -0.447647 0
1.80096 -0.451771 0
1.82573 -0.455785 0
1.85053 -0.459667 0
1.87541 -0.463353 0
1.90041 -0.466765 0
1.9255 -0.469834 0
1.95065 -0.472538 0
1.97582 -0.474892 0
2.00099 -0.476931 0
2.02614 -0.478688 0
2.05127 -0.48018 0
2.07638 -0.481417 0
2.10146 -0.482404 0
2.12651 -0.483157 0
2.15153 -0.483702 0
2.17651 -0.484075 0
2.20145 -0.484316 0
2.22636 -0.484463 0
2.25124 -0.484548 0
2.2761 -0.484597 0
2.30095 -0.484627 0
2.32581 -0.484648 0
2.35067 -0.484667 0
2.37554 -0.484686 0
2.40043 -0.484704 0
2.42533 -0.484721 0
2.45027 -0.484736 0
2.47522 -0.484748 0
2.50019 -0.484754 0
0.0241022 0.174555 0
0.0494226 0.173293 0
0.0737693 0.170849 0
0.0986139 0.171265 0
0.124355 0.168891 0
0.14928 0.167267 0
0.17471 0.162899 0
0.199067 0.161247 0
0.227353 0.155593 0
0.250322 0.150655 0
0.277274 0.142627 0
0.302155 0.13476 0
0.326247 0.124521 0
0.353551 0.113555 0
0.377282 0.101522 0
0.40184 0.088348 0
0.428677 0.0771498 0
0.452379 0.0627997 0
0.47777 0.0484261 0
0.503895 0.0361765 0
0.527173 0.0205765 0
0.552335 0.00808575 0
0.5778 -0.00308098 0
0.601853 -0.0187419 0
0.626965 -0.032785 0
0.652488 -0.0437099 0
0.676781 -0.0575033 0
0.701436 -0.071502 0
0.727359 -0.0831417 0
0.752128 -0.0950422 0
0.775883 -0.107025 0
0.801104 -0.11824 0
0.826987 -0.12993 0
0.851669 -0.142377 0
0.876138 -0.153718 0
0.901535 -0.1642 0
0.926781 -0.175419 0
0.951344 -0.186658 0
0.976098 -0.196579 0
1.00132 -0.205974 0
1.02652 -0.215953 0
1.05142 -0.226302 0
1.07643 -0.236028 0
1.10173 -0.244895 0
1.12683 -0.253551 0
1.15167 -0.262654 0
1.17649 -0.272041 0
1.20127 -0.280826 0
1.22601 -0.288843 0
1.25084 -0.296838 0
1.27567 -0.305155 0
1.30046 -0.313472 0
1.32529 -0.321545 0
1.35027 -0.329345 0
1.37533 -0.336777 0
1.40035 -0.343816 0
1.42534 -0.350649 0
1.45038 -0.357433 0
1.4755 -0.364056 0
1.50064 -0.370289 0
1.5257 -0.376062 0
1.55066 -0.381512 0
1.57561 -0.38678 0
1.60065 -0.391863 0
1.62582 -0.39668 0
1.65103 -0.40123 0
1.67621 -0.405598 0
1.7013 -0.409911 0
1.72633 -0.414227 0
1.75129 -0.418512 0
1.77617 -0.422711 0
1.80097 -0.426809 0
1.82572 -0.430818 0
1.8505 -0.434719 0
1.87538 -0.438442 0
1.90038 -0.441885 0
1.92548 -0.444972 0
1.95065 -0.447675 0
1.97583 -0.450017 0
2.001 -0.45204 0
2.02615 -0.453783 0
2.05128 -0.455262 0
2.07639 -0.456486 0
2.10147 -0.457459 0
2.12652 -0.458195 0
2.15154 -0.458722 0
2.17652 -0.459076 0
2.20146 -0.459299 0
2.22637 -0.459431 0
2.25125 -0.459505 0
2.27611 -0.459547 0
2.30096 -0.459574 0
2.32581 -0.459597 0
2.35066 -0.459619 0
2.37553 -0.459643 0
2.40042 -0.459669 0
2.42533 -0.459694 0
2.45026 -0.459716 0
2.47521 -0.459734 0
2.50019 -0.459744 0
</DataArray>
</Points>
<PointData>
<DataArray NumberOfComponents='1' type='Int32' Name='Particle Type' format='ascii'>
0
0
0
0
0
0
0
0
0
0
0
0
0
0
0
0
0
0
0
0
0
0
1
1
1
1
1
1
1
1
1
1
1
1
1
1
1
1
1
1
1
1
1
1
1
1
1
1
1
1
1
1
1
1
1
1
1
1
1
1
1
1
1
1
1
1
1
1
1
1
1
1
1
1
1
1
1
1
1
1
1
1
1
1
1
1
1
1
1
1
1
1
1
1
1
1
1
1
1
1
1
1
1
1
1
1
1
1
1
1
1
1
1
1
1
1
1
1
1
1
1
1
1
1
1
1
1
1
1
1
1
1
1
1
1
1
1
1
1
1
1
1
1
1
1
1
1
1
1
1
1
1
1
1
1
1
1
1
1
1
1
1
1
1
1
1
1
1
1
1
1
1
1
1
1
1
1
1
1
1
1
1
1
1
1
1
1
1
1
1
1
1
1
1
1
1
1
1
1
1
1
1
1
1
1
1
1
1
1
1
1
1
1
1
1
1
1
1
1
1
1
1
1
1
1
1
1
1
1
1
1
1
1
1
1
1
1
1
1
1
1
1
1
1
1
1
1
1
1
1
1
1
1
1
1
1
1
1
1
1
1
1
1
1
1
1
1
1
1
1
1
1
1
1
1
1
1
1
1
1
1
1
1
1
1
1
1
1
1
1
1
1
1
1
1
1
1
1
1
1
1
1
1
1
1
1
1
1
1
1
1
1
1
1
1
1
1
1
1
1
1
1
1
1
1
1
1
1
1
1
1
1
1
1
1
1
1
1
1
1
1
1
1
1
1
1
1
1
1
1
1
1
1
1
1
1
1
1
1
1
1
1
1
1
1
1
1
1
1
1
1
1
1
1
1
1
1
1
1
1
1
1
1
1
1
1
1
1
1
1
1
1
1
1
1
1
1
1
1
1
1
1
1
1
1
1
1
1
1
1
1
1
1
1
1
1
1
1
1
1
1
1
1
1
1
1
1
1
1
1
1
1
1
1
1
1
1
1
1
1
1
1
1
1
1
1
1
1
1
1
1
1
1
1
1
1
1
1
1
1
1
1
1
1
1
1
1
1
1
1
1
1
1
1
1
1
1
1
1
1
1
1
1
1
1
1
1
1
1
1
1
1
1
1
1
1
1
1
1
1
1
1
1
1
1
1
1
1
1
1
1
1
1
1
1
1
1
1
1
1
1
1
1
1
1
1
1
1
1
1
1
1
1
1
1
1
1
1
1
1
1
1
1
1
1
1
1
1
1
1
1
1
1
1
1
1
1
1
1
1
1
1
1
1
1
1
1
1
1
1
1
1
1
1
1
1
1
1
1
1
1
1
1
1
1
1
1
1
1
1
1
1
1
1
1
1
1
1
1
1
1
1
1
1
1
1
1
1
1
1
1
1
1
1
1
1
1
1
1
1
1
1
1
1
1
1
1
1
1
1
1
1
1
1
1
1
1
1
1
1
1
1
1
1
1
1
1
1
1
1
1
1
1
1
1
1
1
1
1
1
1
1
1
1
1
1
1
1
1
1
1
1
1
1
1
1
1
1
1
1
1
1
1
1
1
1
1
1
1
1
1
1
1
1
1
1
1
1
1
1
1
1
1
1
1
1
1
1
1
1
1
1
1
1
1
1
1
1
1
1
1
1
1
1
1
1
1
1
1
1
1
1
1
1
1
1
1
1
1
1
1
1
1
1
1
1
1
1
1
1
1
1
1
1
1
1
1
1
1
1
1
1
1
1
1
1
1
1
1
1
1
1
1
1
1
1
1
1
1
1
1
1
1
1
1
1
1
1
1
1
1
1
1
1
1
1
1
1
1
1
1
1
1
1
1
1
1
1
</DataArray>
<DataArray NumberOfComponents='3' type='Float64' Name='Velocity' format='ascii'>
0 0 0
0 0 0
0 0 0
0 0 0
0 0 0
0 0 0
0 0 0
0 0 0
0 0 0
0 0 0
0 0 0
0 0 0
0 0 0
0 0 0
0 0 0
0 0 0
0 0 0
0 0 0
0 0 0
0 0 0
-0.0107857 -0.0842871 0
-0.0327919 -0.0465407 0
-0.0168504 -0.0247678 0
-0.0567208 -0.004936 0
0.00683508 -0.141919 0
0.0485759 -0.0872728 0
-0.0533854 -0.0474067 0
-0.000969518 -0.121815 0
-0.00957202 0.0254302 0
-0.0440296 -0.12382 0
0.0248743 -0.142933 0
0.0238071 -0.0668244 0
0.0167798 -0.0889412 0
-0.0609955 -0.05754 0
0.0307571 -0.107473 0
0.0125155 -0.131543 0
-0.032582 -0.151323 0
0.082294 -0.142415 0
-0.0371461 -0.0893538 0
-0.0675401 -0.120179 0
0.0537304 -0.155178 0
-0.0186168 -0.129884 0
-0.0527945 -0.139961 0
0.0215513 -0.177324 0
0.0229246 -0.172947 0
-0.011536 -0.168899 0
-0.0284783 -0.181388 0
-0.0180695 -0.174943 0
0.0099534 -0.184113 0
-0.00197146 -0.216119 0
-0.0285186 -0.220095 0
-0.00432635 -0.20058 0
0.0222215 -0.211139 0
0.00186456 -0.234899 0
-0.0175767 -0.232778 0
-0.00452452 -0.226548 0
0.0125946 -0.23574 0
0.011289 -0.237952 0
-0.00341087 -0.235581 0
-0.0152797 -0.251298 0
-0.00982615 -0.273289 0
0.00976266 -0.279199 0
0.0220403 -0.276195 0
0.0114139 -0.283269 0
-0.0116722 -0.298011 0
-0.0234372 -0.306621 0
-0.0153425 -0.306013 0
-9.36569e-05 -0.307503 0
0.00633883 -0.317248 0
0.00150282 -0.331155 0
-0.00580585 -0.342606 0
-0.00857003 -0.350625 0
-0.00742838 -0.357132 0
-0.00621781 -0.362349 0
-0.00618308 -0.365689 0
-0.00570773 -0.365813 0
-0.00319914 -0.364463 0
0.00115516 -0.365135 0
0.00569348 -0.369226 0
0.00851451 -0.375598 0
0.00853569 -0.382601 0
0.00591479 -0.389713 0
0.00181144 -0.397449 0
-0.0022879 -0.406277 0
-0.00526423 -0.415932 0
-0.00671047 -0.425647 0
-0.00684503 -0.43479 0
-0.0061813 -0.443239 0
-0.00520076 -0.451262 0
-0.00417943 -0.459158 0
-0.00318292 -0.466988 0
-0.00215922 -0.474534 0
-0.00104569 -0.481439 0
0.000167493 -0.487384 0
0.00142713 -0.492214 0
0.00263971 -0.495946 0
0.00370309 -0.498725 0
0.00453242 -0.500743 0
0.0050754 -0.502186 0
0.00531759 -0.5032 0
0.0052804 -0.503892 0
0.00501416 -0.504335 0
0.00458844 -0.504584 0
0.00408122 -0.504686 0
0.00356882 -0.504683 0
0.00311804 -0.504618 0
0.00277952 -0.504535 0
0.0025768 -0.504477 0
-0.0259836 0.0719084 0
-0.00525852 -0.0825332 0
0.0382738 -0.00623719 0
0.0250868 0.022779 0
0.0232706 0.105151 0
0.00285551 0.0764582 0
0.00519304 0.180035 0
-0.00110538 0.06613 0
0.0375965 0.206464 0
-0.124456 0.0315192 0
-0.156244 0.150863 0
0.373154 -0.177933 0
-0.116309 0.0796461 0
-0.027395 -0.00624958 0
0.0606898 -0.0145792 0
0.0789665 0.0195185 0
-0.0334232 0.0815726 0
-0.0400851 0.0733729 0
-0.0171892 -0.0222532 0
0.045212 -0.114196 0
0.0125826 -0.0304577 0
-0.0172981 -0.0705383 0
0.00646466 -0.0638456 0
-0.0598825 -0.0817694 0
-0.0424571 -0.169947 0
0.084484 -0.221237 0
0.055316 -0.0560981 0
-0.111488 -0.0289986 0
-0.0314661 -0.146792 0
0.0745098 -0.117287 0
-0.0311822 -0.0978118 0
-0.0295427 -0.157936 0
0.0435825 -0.163308 0
-5.93471e-07 -0.137392 0
-0.0255306 -0.153614 0
-0.00748937 -0.155215 0
-0.0120304 -0.147207 0
-0.00880878 -0.173357 0
-0.00549606 -0.201074 0
-0.00484465 -0.194389 0
0.00478014 -0.183995 0
-0.0101418 -0.201156 0
-0.0299005 -0.212782 0
-0.00689784 -0.206678 0
0.0195313 -0.213289 0
0.00598464 -0.228664 0
-0.0122663 -0.233786 0
-0.00354386 -0.236519 0
0.00965991 -0.238765 0
0.00648001 -0.234316 0
-0.00393103 -0.235299 0
-0.0088601 -0.253725 0
-0.00463854 -0.27386 0
0.00551242 -0.278358 0
0.0122618 -0.275982 0
0.00733405 -0.282631 0
-0.00618198 -0.29607 0
-0.0157172 -0.304903 0
-0.0131953 -0.307314 0
-0.00362658 -0.311065 0
0.0022214 -0.319317 0
0.000357488 -0.330499 0
-0.004559 -0.341463 0
-0.00717837 -0.350514 0
-0.00700978 -0.357978 0
-0.0063466 -0.362928 0
-0.00606793 -0.365485 0
-0.00513296 -0.366033 0
-0.00257606 -0.365698 0
0.00131183 -0.366943 0
0.00520262 -0.370693 0
0.00760166 -0.376137 0
0.0076344 -0.382262 0
0.00539024 -0.388941 0
0.00177664 -0.396673 0
-0.0019647 -0.40572 0
-0.00481498 -0.415652 0
-0.00632728 -0.425633 0
-0.00661852 -0.435006 0
-0.00610508 -0.44362 0
-0.00521336 -0.451726 0
-0.00421456 -0.459631 0
-0.00320143 -0.467426 0
-0.00215416 -0.474926 0
-0.00102959 -0.481797 0
0.00017781 -0.487725 0
0.00142007 -0.492541 0
0.00261162 -0.496249 0
0.00365674 -0.498978 0
0.0044743 -0.500922 0
0.00501334 -0.502273 0
0.00525926 -0.503191 0
0.00523228 -0.503797 0
0.00498098 -0.504175 0
0.00457278 -0.504385 0
0.00408344 -0.504475 0
0.00358729 -0.504485 0
0.00314957 -0.50445 0
0.0028195 -0.504403 0
0.00261703 -0.504374 0
0.0368027 -0.0237534 0
-0.0373822 -0.068097 0
-0.0515482 0.102947 0
-0.0190891 -0.149433 0
-0.0144642 -0.0786714 0
-0.0149115 -0.235182 0
0.0118751 -0.159036 0
-0.0625307 -0.314595 0
0.131366 -0.115726 0
0.0411677 -0.328212 0
-0.130242 0.129093 0
-0.0133759 -0.134365 0
-0.0128138 -0.257247 0
0.0107622 0.0612782 0
-0.102354 0.00418581 0
0.0400967 -0.186807 0
-0.0113715 0.0417979 0
-0.0553225 -0.0920106 0
0.0330842 -0.134739 0
0.000316764 -0.0716058 0
-0.057091 -0.0620827 0
0.00966117 -0.0542245 0
0.0315738 -0.141053 0
0.0214019 -0.054649 0
-0.0392882 -0.0231629 0
-0.0405443 -0.122264 0
0.0196045 -0.155103 0
0.0147398 -0.122194 0
0.00525544 -0.107494 0
-0.0184474 -0.0751745 0
-0.0416835 -0.123796 0
0.0172609 -0.194174 0
0.0337652 -0.13251 0
-0.0149878 -0.12245 0
-0.0155524 -0.165128 0
-0.00510999 -0.148444 0
-0.0153138 -0.143537 0
-0.00897765 -0.188474 0
-0.0022724 -0.210438 0
-0.0023016 -0.195997 0
0.003647 -0.188008 0
-0.0105642 -0.190089 0
-0.0300399 -0.204621 0
-0.00968946 -0.216067 0
0.0174991 -0.215004 0
0.00793194 -0.218775 0
-0.00893317 -0.235823 0
-0.00246631 -0.245752 0
0.00793449 -0.241981 0
0.0044778 -0.234697 0
-0.00332214 -0.236812 0
-0.00541521 -0.252062 0
-0.00242155 -0.269953 0
0.00231834 -0.276605 0
0.00559176 -0.278066 0
0.00396502 -0.283858 0
-0.00293664 -0.294129 0
-0.00982056 -0.302487 0
-0.0107283 -0.306943 0
-0.00585736 -0.312693 0
-0.00112744 -0.321789 0
-0.000955996 -0.331328 0
-0.00382337 -0.340281 0
-0.00597165 -0.350153 0
-0.00642367 -0.358702 0
-0.00629356 -0.3634 0
-0.00593691 -0.36548 0
-0.0046738 -0.366311 0
-0.00206474 -0.366643 0
0.00146867 -0.3682 0
0.00484735 -0.371618 0
0.00690685 -0.376367 0
0.00693369 -0.381879 0
0.00495518 -0.388259 0
0.001695 -0.395981 0
-0.00177443 -0.405171 0
-0.00451011 -0.415302 0
-0.00604736 -0.425498 0
-0.00643811 -0.435079 0
-0.00603255 -0.443866 0
-0.00521528 -0.452082 0
-0.0042463 -0.460032 0
-0.00323029 -0.467823 0
-0.00216762 -0.475299 0
-0.00103029 -0.482148 0
0.000181205 -0.488061 0
0.0014197 -0.492864 0
0.00260325 -0.496545 0
0.00363976 -0.499225 0
0.0044506 -0.501096 0
0.00498622 -0.502357 0
0.00523251 -0.503182 0
0.00520962 -0.503704 0
0.00496551 -0.504019 0
0.00456658 -0.504192 0
0.00408732 -0.50427 0
0.00360068 -0.504288 0
0.00317042 -0.504275 0
0.00284394 -0.504252 0
0.00263814 -0.504238 0
-0.00388254 -0.0316172 0
-0.0142647 0.0197108 0
0.0441114 0.0514915 0
0.0194808 -0.0655009 0
0.0167847 0.0760363 0
0.0328405 -0.0192294 0
-0.0102721 0.152863 0
-0.056742 -0.0630416 0
0.0076819 0.232816 0
-0.0123365 -0.0811944 0
0.0277723 0.106549 0
0.0252544 0.116471 0
-0.00634167 0.0391035 0
0.00718803 0.0892413 0
0.0126247 -0.225055 0
-0.0216254 0.0511527 0
0.0648083 -0.0576584 0
-0.0249874 -0.142682 0
0.0302441 -0.0768306 0
-0.00127945 0.0766468 0
-0.0684082 -0.127753 0
0.0355578 -0.115079 0
-0.0271814 0.0628661 0
-0.0614402 -0.163124 0
0.034728 -0.0986096 0
-0.0023246 -0.0236996 0
-0.0298258 -0.126861 0
0.0352853 -0.140382 0
0.035502 -0.132699 0
-0.0283563 -0.113715 0
-0.0334649 -0.135118 0
0.00866904 -0.141876 0
0.00292398 -0.113335 0
-0.0211348 -0.137669 0
-0.00816683 -0.157377 0
0.00303178 -0.155415 0
6.68688e-05 -0.17018 0
-0.00493281 -0.185403 0
-0.0134823 -0.200308 0
-0.00966579 -0.198569 0
0.00282105 -0.187025 0
-0.00494185 -0.188273 0
-0.0212252 -0.208861 0
-0.010303 -0.218769 0
0.00954175 -0.21121 0
0.00528985 -0.215503 0
-0.00551949 -0.236619 0
-0.000390058 -0.25012 0
0.00751249 -0.246505 0
0.00441785 -0.238112 0
-0.00246626 -0.23776 0
-0.0042707 -0.249679 0
-0.00193562 -0.26502 0
0.000551723 -0.274232 0
0.00157818 -0.279181 0
0.000897505 -0.2859 0
-0.00195779 -0.293505 0
-0.00600713 -0.299316 0
-0.00819858 -0.305347 0
-0.00666617 -0.314098 0
-0.0034949 -0.323871 0
-0.002163 -0.332306 0
-0.00331495 -0.340404 0
-0.0050201 -0.350261 0
-0.00599983 -0.359203 0
-0.00628436 -0.363787 0
-0.00582839 -0.365687 0
-0.00429199 -0.366719 0
-0.00164231 -0.3674 0
0.00162157 -0.369047 0
0.00462179 -0.37216 0
0.00643879 -0.376404 0
0.00645748 -0.381479 0
0.00464095 -0.38763 0
0.00159186 -0.395327 0
-0.00170843 -0.404626 0
-0.00435719 -0.414933 0
-0.00588662 -0.425331 0
-0.00631906 -0.435112 0
-0.00597204 -0.444069 0
-0.00520799 -0.452406 0
-0.00427331 -0.460422 0
-0.00326867 -0.468235 0
-0.00220075 -0.475711 0
-0.00105084 -0.482551 0
0.000173423 -0.488455 0
0.00142097 -0.493241 0
0.00260876 -0.496888 0
0.00364549 -0.499509 0
0.00445409 -0.501297 0
0.00498671 -0.502459 0
0.00523065 -0.503183 0
0.00520694 -0.503615 0
0.00496381 -0.503862 0
0.00456744 -0.503994 0
0.00409173 -0.504058 0
0.00360882 -0.504083 0
0.00318147 -0.504087 0
0.00285598 -0.504083 0
0.00264807 -0.50408 0
-0.0308911 7.08191e-05 0
0.0245574 -0.031361 0
0.00479553 -0.0377174 0
-0.0503722 -0.0528628 0
-0.0079563 0.0727305 0
-0.012726 -0.103409 0
-0.0473205 0.0957193 0
0.0142622 -0.0635052 0
0.0318598 0.0854156 0
0.0605145 -0.0251327 0
-0.00503544 -0.132401 0
-0.0573348 -0.0151474 0
0.0827644 -0.101922 0
0.013016 0.0519515 0
0.00566057 -0.170845 0
-0.0204364 0.115106 0
0.0102511 -0.17363 0
-0.0656832 0.011559 0
0.0162361 0.0473866 0
0.00729748 -0.0176697 0
-0.0384303 -0.0851075 0
0.021742 -0.115115 0
0.00930389 -0.0608027 0
-0.0391013 -0.187474 0
0.0314578 -0.12843 0
0.0368568 -0.0283996 0
-0.0522366 -0.0466753 0
-0.0402337 -0.0970323 0
0.021978 -0.172925 0
0.0194887 -0.151032 0
-0.00330965 -0.111536 0
-0.00632364 -0.112426 0
-0.0149478 -0.119588 0
-0.0212531 -0.137846 0
-0.00732969 -0.168328 0
0.00486177 -0.176385 0
0.00428367 -0.169389 0
-0.00370518 -0.175323 0
-0.0156912 -0.188021 0
-0.0159092 -0.196149 0
-0.000236314 -0.19441 0
0.00256011 -0.195979 0
-0.0107353 -0.208329 0
-0.0103283 -0.220375 0
0.000488864 -0.21226 0
0.000430691 -0.211423 0
-0.00304469 -0.235298 0
0.00256545 -0.252759 0
0.00825618 -0.249466 0
0.00447067 -0.241597 0
-0.00211469 -0.23998 0
-0.00354517 -0.247085 0
-0.00156837 -0.260284 0
-0.000421554 -0.272549 0
-0.000818498 -0.280805 0
-0.00162929 -0.286809 0
-0.00263597 -0.292047 0
-0.00433757 -0.297261 0
-0.00620501 -0.304336 0
-0.00643733 -0.314589 0
-0.00456388 -0.325355 0
-0.00272686 -0.333884 0
-0.00288186 -0.341298 0
-0.00448844 -0.350595 0
-0.00597267 -0.359425 0
-0.00646912 -0.364107 0
-0.00577536 -0.366109 0
-0.00396909 -0.367234 0
-0.00131275 -0.367999 0
0.00174013 -0.369613 0
0.00451647 -0.372503 0
0.00623106 -0.37639 0
0.00625906 -0.381108 0
0.00449163 -0.387027 0
0.00148934 -0.394668 0
-0.00176823 -0.404069 0
-0.00437268 -0.414572 0
-0.00586146 -0.42519 0
-0.00627019 -0.435167 0
-0.0059265 -0.44428 0
-0.00518984 -0.452728 0
-0.00429049 -0.460812 0
-0.00331119 -0.468663 0
-0.00224982 -0.476158 0
-0.00108937 -0.483007 0
0.00015479 -0.488909 0
0.00142298 -0.493676 0
0.00262626 -0.49728 0
0.00367116 -0.499831 0
0.00448138 -0.501524 0
0.00501124 -0.502577 0
0.00525036 -0.503192 0
0.00522147 -0.50353 0
0.00497382 -0.503707 0
0.00457395 -0.503796 0
0.00409577 -0.503844 0
0.00361124 -0.503874 0
0.0031829 -0.503894 0
0.00285687 -0.503908 0
0.0026487 -0.503915 0
-0.0126862 0.0640716 0
0.0194499 0.0454124 0
-0.0567765 0.156867 0
0.020986 0.0565579 0
0.0109372 0.216867 0
-0.00446648 0.106896 0
0.00985132 0.188184 0
-0.019262 0.12809 0
-0.0369665 0.0351529 0
0.0438688 0.0350629 0
-0.0214635 0.129282 0