<?xml version='1.0' encoding='UTF-8'?>
<VTKFile byte_order='LittleEndian' version='0.1' type = 'UnstructuredGrid'>
<UnstructuredGrid>
<FieldData>
<DataArray type='Float64' Name='Time' NumberOfComponents='1' NumberOfTuples='1' format='ascii'>
3.161
</DataArray>
</FieldData>
<Piece NumberOfCells='808' NumberOfPoints='808'>
<Points>
<DataArray NumberOfComponents='3' type='Float64' Name='position' format='ascii'>
0 0 0
0 0.025 0
0 0.05 0
0 0.075 0
0 0.1 0
0 0.125 0
0 0.15 0
0 0.175 0
0.025 0 0
0.05 0 0
0.075 0 0
0.1 0 0
0.125 0 0
0.15 0 0
0.175 0 0
0.200385 -0.000767574 0
0.225 0 0
0.247597 -0.005839 0
0.268647 -0.00566543 0
0.291655 -0.00694853 0
0.3195 -0.0208615 0
0.335057 -0.00983015 0
0.363942 -0.0655732 0
0.3965 -0.0806141 0
0.420679 -0.117933 0
0.451686 -0.130502 0
0.475826 -0.155184 0
0.500767 -0.181743 0
0.530435 -0.200924 0
0.55532 -0.220099 0
0.575629 -0.225058 0
0.601611 -0.250128 0
0.626057 -0.264132 0
0.650796 -0.282789 0
0.679075 -0.30007 0
0.692088 -0.317181 0
0.730137 -0.345354 0
0.752132 -0.353072 0
0.769593 -0.368956 0
0.805511 -0.384711 0
0.819665 -0.396297 0
0.849694 -0.422876 0
0.883942 -0.435392 0
0.892947 -0.439741 0
0.923799 -0.460414 0
0.956417 -0.474398 0
0.96908 -0.481722 0
0.995936 -0.500022 0
1.02815 -0.517152 0
1.04768 -0.526936 0
1.06978 -0.53973 0
1.09862 -0.554361 0
1.12495 -0.567235 0
1.14747 -0.580194 0
1.17016 -0.592319 0
1.19757 -0.604275 0
1.22533 -0.618363 0
1.24688 -0.631879 0
1.26955 -0.642597 0
1.29847 -0.653622 0
1.32486 -0.666736 0
1.34626 -0.679041 0
1.37045 -0.689367 0
1.39828 -0.70024 0
1.42443 -0.712228 0
1.44798 -0.723035 0
1.47155 -0.732468 0
1.49671 -0.742218 0
1.52334 -0.752547 0
1.54982 -0.762726 0
1.57449 -0.772625 0
1.59784 -0.782173 0
1.62213 -0.7912 0
1.64837 -0.800144 0
1.67509 -0.809469 0
1.70038 -0.818739 0
1.72417 -0.827223 0
1.74784 -0.835012 0
1.77247 -0.842947 0
1.79808 -0.8515 0
1.82387 -0.860033 0
1.84903 -0.867712 0
1.87348 -0.874694 0
1.898 -0.881567 0
1.92311 -0.888433 0
1.94858 -0.895114 0
1.97393 -0.901624 0
1.99908 -0.907998 0
2.02421 -0.914109 0
2.04944 -0.919778 0
2.07475 -0.924929 0
2.10009 -0.929636 0
2.12545 -0.934056 0
2.15081 -0.938359 0
2.17616 -0.942675 0
2.20149 -0.947085 0
2.22678 -0.951599 0
2.25202 -0.956166 0
2.27716 -0.960696 0
2.30218 -0.965075 0
2.32707 -0.969181 0
2.35185 -0.972897 0
2.37659 -0.976138 0
2.40136 -0.978856 0
2.42618 -0.981032 0
2.45106 -0.982667 0
2.47599 -0.983762 0
2.50093 -0.984366 0
0.0318933 0.0176549 0
0.0486758 0.0294472 0
0.072821 0.0321693 0
0.0980936 0.0310663 0
0.120136 0.0293848 0
0.151437 0.0282667 0
0.167776 0.0351835 0
0.191379 0.0275587 0
0.225601 0.0188237 0
0.238541 0.015572 0
0.27795 0.0175472 0
0.291901 0.00894248 0
0.320191 -0.00774937 0
0.344716 -0.016071 0
0.371139 -0.0416799 0
0.398285 -0.0703467 0
0.436404 -0.100395 0
0.448066 -0.110905 0
0.462385 -0.12555 0
0.514747 -0.155054 0
0.529785 -0.167707 0
0.552091 -0.195472 0
0.578689 -0.201877 0
0.590706 -0.230993 0
0.632234 -0.241275 0
0.647294 -0.253691 0
0.660833 -0.2808 0
0.708478 -0.296398 0
0.731444 -0.316102 0
0.737853 -0.328814 0
0.781909 -0.355225 0
0.81041 -0.364904 0
0.818678 -0.370634 0
0.846834 -0.385842 0
0.876903 -0.401054 0
0.898065 -0.420726 0
0.926362 -0.439275 0
0.952908 -0.447632 0
0.9714 -0.459189 0
0.995529 -0.476209 0
1.02432 -0.489879 0
1.04955 -0.502286 0
1.07263 -0.515771 0
1.09714 -0.529412 0
1.12299 -0.542347 0
1.14754 -0.555687 0
1.17193 -0.568823 0
1.19794 -0.581085 0
1.22313 -0.59361 0
1.24644 -0.60641 0
1.27142 -0.618301 0
1.29842 -0.629975 0
1.32357 -0.642238 0
1.34676 -0.654127 0
1.37138 -0.665078 0
1.39768 -0.676096 0
1.42339 -0.687352 0
1.44789 -0.698022 0
1.47222 -0.708201 0
1.4973 -0.718372 0
1.52319 -0.728309 0
1.54908 -0.73794 0
1.574 -0.747548 0
1.59811 -0.757328 0
1.6227 -0.766956 0
1.64851 -0.776078 0
1.6747 -0.784901 0
1.69995 -0.793646 0
1.72406 -0.802074 0
1.74801 -0.810229 0
1.77276 -0.818571 0
1.7982 -0.827081 0
1.82369 -0.835253 0
1.84878 -0.842778 0
1.87349 -0.849856 0
1.89817 -0.85683 0
1.92318 -0.863759 0
1.94852 -0.870466 0
1.97387 -0.876924 0
1.99908 -0.883205 0
2.02423 -0.889257 0
2.04945 -0.89492 0
2.07475 -0.90009 0
2.10009 -0.904818 0
2.12543 -0.909256 0
2.15079 -0.913584 0
2.17614 -0.917925 0
2.20147 -0.922344 0
2.22677 -0.92684 0
2.252 -0.931359 0
2.27714 -0.935817 0
2.30215 -0.940116 0
2.32704 -0.944152 0
2.35183 -0.947823 0
2.37659 -0.951047 0
2.40137 -0.953765 0
2.42619 -0.95595 0
2.45108 -0.957591 0
2.476 -0.958686 0
2.50096 -0.959282 0
0.0105301 0.066866 0
0.0524977 0.0471418 0
0.0811492 0.0508154 0
0.0852596 0.0416992 0
0.123429 0.0402817 0
0.158963 0.0450226 0
0.176532 0.0415128 0
0.192081 0.0392171 0
0.228295 0.0381895 0
0.241377 0.0259717 0
0.280648 0.0322985 0
0.293061 0.0192127 0
0.31831 0.014662 0
0.35576 -0.00404743 0
0.371737 -0.013659 0
0.404637 -0.0519859 0
0.415467 -0.0494342 0
0.452567 -0.0916813 0
0.4768 -0.106209 0
0.505386 -0.144439 0
0.526468 -0.144076 0
0.5469 -0.167245 0
0.584421 -0.190777 0
0.599512 -0.202962 0
0.626257 -0.220891 0
0.654715 -0.235198 0
0.671248 -0.249833 0
0.700424 -0.266561 0
0.72694 -0.297627 0
0.753637 -0.313916 0
0.777246 -0.308828 0
0.796343 -0.329437 0
0.823386 -0.35473 0
0.855036 -0.367484 0
0.876903 -0.374687 0
0.895002 -0.390354 0
0.92197 -0.410678 0
0.952209 -0.425311 0
0.975785 -0.438077 0
0.99657 -0.452057 0
1.02212 -0.46467 0
1.04975 -0.476449 0
1.07315 -0.490584 0
1.0965 -0.504961 0
1.12249 -0.517485 0
1.14759 -0.530944 0
1.17284 -0.54513 0
1.19833 -0.557062 0
1.22188 -0.568673 0
1.24597 -0.581193 0
1.2725 -0.59368 0
1.29864 -0.605914 0
1.32282 -0.617671 0
1.34684 -0.628834 0
1.37192 -0.640135 0
1.39741 -0.651683 0
1.42274 -0.662742 0
1.44786 -0.673142 0
1.47274 -0.683516 0
1.49763 -0.693988 0
1.52297 -0.703865 0
1.54859 -0.712986 0
1.57374 -0.722407 0
1.5983 -0.732534 0
1.62305 -0.742445 0
1.6486 -0.751531 0
1.67447 -0.760085 0
1.69966 -0.768455 0
1.72394 -0.776867 0
1.74814 -0.785418 0
1.77298 -0.793985 0
1.79829 -0.802351 0
1.82359 -0.810307 0
1.84865 -0.817787 0
1.87348 -0.824942 0
1.89826 -0.831993 0
1.92323 -0.838963 0
1.94849 -0.845696 0
1.97383 -0.852127 0
1.99908 -0.85831 0
2.02425 -0.864289 0
2.04947 -0.86996 0
2.07475 -0.875175 0
2.10008 -0.879934 0
2.12542 -0.884403 0
2.15076 -0.888766 0
2.17612 -0.893143 0
2.20146 -0.897574 0
2.22677 -0.902048 0
2.252 -0.906509 0
2.27713 -0.910888 0
2.30213 -0.91511 0
2.32701 -0.919089 0
2.35182 -0.922732 0
2.37659 -0.925952 0
2.40138 -0.928681 0
2.42621 -0.930878 0
2.45109 -0.932528 0
2.47602 -0.933623 0
2.50098 -0.934216 0
0.0241484 0.0684764 0
0.0566633 0.0650859 0
0.069997 0.0695807 0
0.0869311 0.0737618 0
0.11992 0.0721981 0
0.151985 0.0741918 0
0.169369 0.05814 0
0.195019 0.058342 0
0.234526 0.0715368 0
0.252265 0.0421471 0
0.266481 0.0474848 0
0.308242 0.0274414 0
0.322595 0.0300123 0
0.335377 0.0152041 0
0.382652 -0.0156353 0
0.402569 -0.0148552 0
0.428725 -0.0418393 0
0.450056 -0.0762247 0
0.482213 -0.072219 0
0.497361 -0.0946406 0
0.527769 -0.131778 0
0.555363 -0.129777 0
0.577624 -0.159445 0
0.60394 -0.180184 0
0.627033 -0.178949 0
0.653343 -0.206452 0
0.671892 -0.236565 0
0.698001 -0.240234 0
0.73105 -0.261546 0
0.750452 -0.276686 0
0.770445 -0.285074 0
0.800249 -0.305333 0
0.825304 -0.328979 0
0.850708 -0.343496 0
0.877803 -0.353366 0
0.897301 -0.366473 0
0.919706 -0.38209 0
0.94931 -0.395936 0
0.976146 -0.41426 0
0.999447 -0.430355 0
1.02303 -0.43873 0
1.04752 -0.451005 0
1.07243 -0.466466 0
1.09722 -0.480073 0
1.12248 -0.493064 0
1.14775 -0.506266 0
1.17306 -0.5199 0
1.19795 -0.532761 0
1.22175 -0.544375 0
1.24659 -0.55629 0
1.27281 -0.56888 0
1.29802 -0.581362 0
1.32225 -0.59278 0
1.34708 -0.603634 0
1.37227 -0.615293 0
1.3973 -0.627315 0
1.42249 -0.638148 0
1.44786 -0.648243 0
1.47293 -0.658806 0
1.49773 -0.669371 0
1.52281 -0.679012 0
1.54831 -0.688122 0
1.57362 -0.697655 0
1.5984 -0.707762 0
1.62324 -0.71772 0
1.64867 -0.72677 0
1.67428 -0.735046 0
1.69938 -0.743305 0
1.72387 -0.751863 0
1.74829 -0.760621 0
1.77315 -0.769303 0
1.79835 -0.777534 0
1.82354 -0.785305 0
1.84858 -0.792804 0
1.87346 -0.800056 0
1.89829 -0.80715 0
1.92326 -0.814159 0
1.94847 -0.820919 0
1.97379 -0.827296 0
1.99906 -0.833395 0
2.02427 -0.839327 0
2.04948 -0.844994 0
2.07475 -0.850232 0
2.10007 -0.855027 0
2.1254 -0.859538 0
2.15074 -0.863947 0
2.1761 -0.868365 0
2.20146 -0.872813 0
2.22677 -0.877257 0
2.25201 -0.88165 0
2.27713 -0.885944 0
2.30212 -0.89009 0
2.327 -0.894022 0
2.3518 -0.897648 0
2.37658 -0.900874 0
2.40138 -0.903618 0
2.42622 -0.90583 0
2.45111 -0.907488 0
2.47604 -0.908585 0
2.50101 -0.909177 0
0.0295246 0.0884593 0
0.0441408 0.114125 0
0.062121 0.0996917 0
0.105688 0.0987136 0
0.118959 0.108245 0
0.152387 0.0885374 0
0.163319 0.0940085 0
0.190962 0.0839225 0
0.237801 0.0932381 0
0.241359 0.07978 0
0.267796 0.0830403 0
0.303857 0.0605724 0
0.329208 0.0518482 0
0.365141 0.0474881 0
0.368148 0.00890897 0
0.406999 0.0076768 0
0.427877 -0.014409 0
0.451464 -0.0291469 0
0.473024 -0.0579356 0
0.502947 -0.0751674 0
0.530014 -0.105866 0
0.557255 -0.106671 0
0.57025 -0.132646 0
0.595717 -0.139944 0
0.632861 -0.158248 0
0.65358 -0.175337 0
0.677887 -0.21079 0
0.705009 -0.21419 0
0.721053 -0.219876 0
0.744341 -0.256432 0
0.781813 -0.273529 0
0.806886 -0.282856 0
0.818949 -0.296503 0
0.845298 -0.312997 0
0.878102 -0.32934 0
0.900054 -0.344003 0
0.921336 -0.358569 0
0.948708 -0.370567 0
0.974328 -0.385551 0
0.998658 -0.404989 0
1.02375 -0.415491 0
1.04715 -0.425341 0
1.07211 -0.442767 0
1.09842 -0.457302 0
1.12256 -0.467549 0
1.14701 -0.480268 0
1.17284 -0.49547 0
1.19783 -0.508222 0
1.22219 -0.519518 0
1.24748 -0.532062 0
1.2728 -0.544299 0
1.29704 -0.556033 0
1.32168 -0.567807 0
1.34737 -0.579065 0
1.37265 -0.590623 0
1.39729 -0.602664 0
1.42239 -0.613632 0
1.44783 -0.623532 0
1.47286 -0.633785 0
1.49767 -0.644431 0
1.52285 -0.654338 0
1.54827 -0.663507 0
1.57348 -0.673022 0
1.59839 -0.683095 0
1.62338 -0.69285 0
1.64868 -0.701701 0
1.67408 -0.70997 0
1.69916 -0.718316 0
1.72385 -0.727019 0
1.74846 -0.735912 0
1.77329 -0.744544 0
1.79838 -0.752623 0
1.82352 -0.760343 0
1.84853 -0.767865 0
1.87342 -0.775164 0
1.89829 -0.782336 0
1.92328 -0.789394 0
1.94846 -0.796128 0
1.97376 -0.802446 0
1.99904 -0.808497 0
2.02427 -0.814396 0
2.04949 -0.820045 0
2.07476 -0.825288 0
2.10006 -0.830112 0
2.12538 -0.834672 0
2.15072 -0.839144 0
2.17608 -0.843607 0
2.20145 -0.848064 0
2.22678 -0.852475 0
2.25202 -0.856792 0
2.27714 -0.860998 0
2.30212 -0.865072 0
2.32699 -0.868964 0
2.35179 -0.872583 0
2.37657 -0.87582 0
2.40137 -0.878582 0
2.42622 -0.880809 0
2.45112 -0.882475 0
2.47606 -0.883574 0
2.50103 -0.884164 0
0.0271303 0.128163 0
0.0470154 0.12687 0
0.0797288 0.12284 0
0.105992 0.122358 0
0.123698 0.133953 0
0.153975 0.10937 0
0.169464 0.122131 0
0.21702 0.119176 0
0.228675 0.103063 0
0.252948 0.0991502 0
0.273243 0.100091 0
0.307111 0.0831331 0
0.331246 0.0646138 0
0.350427 0.0581756 0
0.382241 0.0407343 0
0.399895 0.0253631 0
0.431536 0.0178917 0
0.450792 -0.0169255 0
0.480166 -0.0129008 0
0.50709 -0.0561824 0
0.513213 -0.0481814 0
0.548843 -0.0801109 0
0.575945 -0.100458 0
0.606975 -0.132714 0
0.628251 -0.142164 0
0.647724 -0.167074 0
0.674627 -0.16477 0
0.705895 -0.191146 0
0.724691 -0.208845 0
0.748703 -0.232786 0
0.780026 -0.243061 0
0.80131 -0.251989 0
0.820263 -0.273181 0
0.848476 -0.288441 0
0.875831 -0.300267 0
0.899703 -0.321056 0
0.924167 -0.336785 0
0.948857 -0.343402 0
0.972517 -0.360301 0
0.996771 -0.37856 0
1.02267 -0.389585 0
1.04849 -0.401979 0
1.07358 -0.419775 0
1.09826 -0.43309 0
1.12225 -0.442304 0
1.14669 -0.454972 0
1.17233 -0.470501 0
1.19787 -0.48362 0
1.22284 -0.494951 0
1.24774 -0.507121 0
1.27241 -0.519542 0
1.29678 -0.531363 0
1.32164 -0.542815 0
1.3472 -0.554403 0
1.37263 -0.566526 0
1.39755 -0.578189 0
1.42244 -0.588538 0
1.44755 -0.598485 0
1.47266 -0.608991 0
1.49777 -0.619646 0
1.52302 -0.629641 0
1.54827 -0.639012 0
1.57333 -0.648527 0
1.59832 -0.658388 0
1.62342 -0.667846 0
1.64864 -0.676486 0
1.67388 -0.684871 0
1.69901 -0.69351 0
1.72389 -0.702353 0
1.7486 -0.711182 0
1.7734 -0.719672 0
1.79843 -0.727698 0
1.82353 -0.735428 0
1.8485 -0.74293 0
1.87337 -0.750258 0
1.89826 -0.757541 0
1.92328 -0.764649 0
1.94845 -0.771324 0
1.97372 -0.777578 0
1.99901 -0.783611 0
2.02426 -0.789496 0
2.0495 -0.79512 0
2.07476 -0.800349 0
2.10005 -0.805191 0
2.12537 -0.809795 0
2.15071 -0.814327 0
2.17608 -0.818843 0
2.20145 -0.823315 0
2.22678 -0.82769 0
2.25203 -0.831932 0
2.27715 -0.836051 0
2.30212 -0.840059 0
2.32699 -0.843918 0
2.35178 -0.847535 0
2.37656 -0.850788 0
2.40137 -0.853571 0
2.42622 -0.855814 0
2.45112 -0.857487 0
2.47607 -0.858589 0
2.50105 -0.85918 0
0.0273181 0.151731 0
0.0512621 0.150869 0
0.0732967 0.142559 0
0.0875394 0.14642 0
0.123566 0.149754 0
0.15026 0.136734 0
0.18008 0.14436 0
0.183831 0.13073 0
0.232135 0.123776 0
0.245663 0.125395 0
0.277298 0.109868 0
0.318314 0.103803 0
0.3344 0.093506 0
0.358607 0.0814024 0
0.376359 0.0739711 0
0.403155 0.0456466 0
0.429047 0.0299777 0
0.450461 0.0117056 0
0.481839 0.00582797 0
0.508155 -0.0241911 0
0.523512 -0.0457531 0
0.559584 -0.0562698 0
0.582433 -0.0766179 0
0.595261 -0.0923322 0
0.634152 -0.105423 0
0.650001 -0.121578 0
0.67371 -0.1542 0
0.703406 -0.157006 0
0.726844 -0.190319 0
0.748679 -0.198383 0
0.772425 -0.206908 0
0.798177 -0.233865 0
0.826509 -0.252414 0
0.851018 -0.259579 0
0.873335 -0.275291 0
0.898827 -0.298193 0
0.924891 -0.309898 0
0.948622 -0.319765 0
0.972077 -0.336984 0
0.996785 -0.353505 0
1.02256 -0.364212 0
1.04866 -0.378883 0
1.07378 -0.395462 0
1.09797 -0.407072 0
1.12201 -0.418088 0
1.14691 -0.431509 0
1.17257 -0.445683 0
1.19772 -0.458527 0
1.22251 -0.469767 0
1.24744 -0.482116 0
1.27234 -0.495294 0
1.29718 -0.507108 0
1.322 -0.517989 0
1.34694 -0.529833 0
1.3722 -0.542435 0
1.39755 -0.553719 0
1.42256 -0.56336 0
1.44735 -0.573292 0
1.47245 -0.584391 0
1.49792 -0.595242 0
1.52327 -0.604978 0
1.54828 -0.614418 0
1.5732 -0.624149 0
1.59822 -0.633729 0
1.62335 -0.642736 0
1.64854 -0.651326 0
1.67379 -0.659928 0
1.69898 -0.668854 0
1.72393 -0.677812 0
1.74865 -0.686413 0
1.77345 -0.694742 0
1.79848 -0.70286 0
1.82355 -0.710587 0
1.84848 -0.717991 0
1.87331 -0.725376 0
1.89821 -0.732784 0
1.92325 -0.739914 0
1.94842 -0.746536 0
1.97369 -0.752735 0
1.99898 -0.758746 0
2.02424 -0.764638 0
2.04949 -0.770256 0
2.07475 -0.775453 0
2.10004 -0.780276 0
2.12536 -0.78491 0
2.1507 -0.789501 0
2.17607 -0.794074 0
2.20144 -0.79857 0
2.22679 -0.80291 0
2.25204 -0.807079 0
2.27716 -0.811118 0
2.30214 -0.815066 0
2.32699 -0.818898 0
2.35178 -0.822516 0
2.37655 -0.825787 0
2.40135 -0.82859 0
2.42621 -0.830847 0
2.45112 -0.832529 0
2.47608 -0.833635 0
2.50107 -0.834229 0
0.0276967 0.169382 0
0.0509971 0.179714 0
0.0739336 0.182762 0
0.10448 0.175418 0
0.126142 0.165828 0
0.134169 0.175402 0
0.175134 0.163454 0
0.199947 0.165081 0
0.23405 0.167919 0
0.256415 0.154988 0
0.277434 0.157022 0
0.306219 0.137056 0
0.329565 0.125124 0
0.355395 0.103139 0
0.377013 0.0939073 0
0.409757 0.0794287 0
0.429556 0.0585728 0
0.451111 0.0521945 0
0.475346 0.0151467 0
0.499877 0.0104962 0
0.532382 -0.0160075 0
0.556633 -0.0289257 0
0.575923 -0.0479878 0
0.602006 -0.0688738 0
0.624126 -0.0887202 0
0.647447 -0.108691 0
0.675601 -0.119659 0
0.70097 -0.137613 0
0.724192 -0.155915 0
0.751043 -0.174576 0
0.776729 -0.18907 0
0.800333 -0.207309 0
0.824082 -0.225586 0
0.848534 -0.237359 0
0.873627 -0.252611 0
0.898425 -0.269595 0
0.922755 -0.282234 0
0.948026 -0.297816 0
0.973933 -0.316418 0
0.998991 -0.329376 0
1.02303 -0.340061 0
1.04703 -0.354374 0
1.07234 -0.369801 0
1.09789 -0.382492 0
1.12253 -0.393943 0
1.14755 -0.40831 0
1.17287 -0.42262 0
1.19738 -0.433176 0
1.22168 -0.443757 0
1.24685 -0.457648 0
1.27261 -0.472034 0
1.2979 -0.483223 0
1.32234 -0.493158 0
1.34663 -0.50553 0
1.37172 -0.518697 0
1.39742 -0.529296 0
1.4226 -0.538269 0
1.44723 -0.548544 0
1.47234 -0.560187 0
1.49804 -0.5711 0
1.52344 -0.580595 0
1.5483 -0.58992 0
1.57311 -0.599775 0
1.5981 -0.609298 0
1.6232 -0.617905 0
1.64842 -0.626348 0
1.67378 -0.635352 0
1.69905 -0.64454 0
1.72396 -0.653319 0
1.74862 -0.66171 0
1.77344 -0.670025 0
1.79852 -0.678217 0
1.82359 -0.685921 0
1.84846 -0.693212 0
1.87326 -0.700604 0
1.89816 -0.708143 0
1.9232 -0.715318 0
1.94839 -0.721856 0
1.97367 -0.727992 0
1.99897 -0.734015 0
2.02423 -0.739916 0
2.04947 -0.745504 0
2.07474 -0.750663 0
2.10003 -0.75547 0
2.12536 -0.760117 0
2.1507 -0.764744 0
2.17606 -0.769355 0
2.20144 -0.773861 0
2.2268 -0.778167 0
2.25207 -0.782267 0
2.2772 -0.786231 0
2.30217 -0.79012 0
2.32701 -0.793922 0
2.35177 -0.797537 0
2.37654 -0.800818 0
2.40134 -0.803635 0
2.42619 -0.805902 0
2.45111 -0.80759 0
2.47608 -0.808701 0
2.50108 -0.809304 0
</DataArray>
</Points>
<PointData>
<DataArray NumberOfComponents='1' type='Int32' Name='Particle Type' format='ascii'>
0
0
0
0
0
0
0
0
0
0
0
0
0
0
0
0
0
0
0
0
0
0
1
1
1
1
1
1
1
1
1
1
1
1
1
1
1
1
1
1
1
1
1
1
1
1
1
1
1
1
1
1
1
1
1
1
1
1
1
1
1
1
1
1
1
1
1
1
1
1
1
1
1
1
1
1
1
1
1
1
1
1
1
1
1
1
1
1
1
1
1
1
1
1
1
1
1
1
1
1
1
1
1
1
1
1
1
1
1
1
1
1
1
1
1
1
1
1
1
1
1
1
1
1
1
1
1
1
1
1
1
1
1
1
1
1
1
1
1
1
1
1
1
1
1
1
1
1
1
1
1
1
1
1
1
1
1
1
1
1
1
1
1
1
1
1
1
1
1
1
1
1
1
1
1
1
1
1
1
1
1
1
1
1
1
1
1
1
1
1
1
1
1
1
1
1
1
1
1
1
1
1
1
1
1
1
1
1
1
1
1
1
1
1
1
1
1
1
1
1
1
1
1
1
1
1
1
1
1
1
1
1
1
1
1
1
1
1
1
1
1
1
1
1
1
1
1
1
1
1
1
1
1
1
1
1
1
1
1
1
1
1
1
1
1
1
1
1
1
1
1
1
1
1
1
1
1
1
1
1
1
1
1
1
1
1
1
1
1
1
1
1
1
1
1
1
1
1
1
1
1
1
1
1
1
1
1
1
1
1
1
1
1
1
1
1
1
1
1
1
1
1
1
1
1
1
1
1
1
1
1
1
1
1
1
1
1
1
1
1
1
1
1
1
1
1
1
1
1
1
1
1
1
1
1
1
1
1
1
1
1
1
1
1
1
1
1
1
1
1
1
1
1
1
1
1
1
1
1
1
1
1
1
1
1
1
1
1
1
1
1
1
1
1
1
1
1
1
1
1
1
1
1
1
1
1
1
1
1
1
1
1
1
1
1
1
1
1
1
1
1
1
1
1
1
1
1
1
1
1
1
1
1
1
1
1
1
1
1
1
1
1
1
1
1
1
1
1
1
1
1
1
1
1
1
1
1
1
1
1
1
1
1
1
1
1
1
1
1
1
1
1
1
1
1
1
1
1
1
1
1
1
1
1
1
1
1
1
1
1
1
1
1
1
1
1
1
1
1
1
1
1
1
1
1
1
1
1
1
1
1
1
1
1
1
1
1
1
1
1
1
1
1
1
1
1
1
1
1
1
1
1
1
1
1
1
1
1
1
1
1
1
1
1
1
1
1
1
1
1
1
1
1
1
1
1
1
1
1
1
1
1
1
1
1
1
1
1
1
1
1
1
1
1
1
1
1
1
1
1
1
1
1
1
1
1
1
1
1
1
1
1
1
1
1
1
1
1
1
1
1
1
1
1
1
1
1
1
1
1
1
1
1
1
1
1
1
1
1
1
1
1
1
1
1
1
1
1
1
1
1
1
1
1
1
1
1
1
1
1
1
1
1
1
1
1
1
1
1
1
1
1
1
1
1
1
1
1
1
1
1
1
1
1
1
1
1
1
1
1
1
1
1
1
1
1
1
1
1
1
1
1
1
1
1
1
1
1
1
1
1
1
1
1
1
1
1
1
1
1
1
1
1
1
1
1
1
1
1
1
1
1
1
1
1
1
1
1
1
1
1
1
1
1
1
1
1
1
1
1
1
1
1
1
1
1
1
1
1
1
1
1
1
1
1
1
1
1
1
1
1
1
1
1
1
1
1
1
1
1
1
1
1
1
1
1
1
1
1
1
1
1
1
1
1
1
1
1
1
1
1
1
1
1
1
1
1
1
1
1
1
1
1
1
1
1
1
1
1
1
1
1
1
1
1
1
1
1
</DataArray>
<DataArray NumberOfComponents='3' type='Float64' Name='Velocity' format='ascii'>
0 0 0
0 0 0
0 0 0
0 0 0
0 0 0
0 0 0
0 0 0
0 0 0
0 0 0
0 0 0
0 0 0
0 0 0
0 0 0
0 0 0
0 0 0
0.0902158 -0.269841 0
0 0 0
-0.125847 -0.580021 0
-0.416328 -0.400853 0
-0.614676 -0.293549 0
-0.0473254 -0.303774 0
-0.0608706 -0.273442 0
-0.0342599 0.0274578 0
0.239872 -0.0997333 0
-0.141342 -0.0660557 0
-0.368477 -0.268482 0
0.00861686 0.279732 0
-0.103864 -0.134714 0
-0.147336 0.0333989 0
0.102365 -0.352146 0
0.0366403 -0.192548 0
-0.0871787 0.133919 0
0.0559134 -0.124119 0
-0.667037 -0.153763 0
0.232644 -0.221369 0
-0.0592641 0.108094 0
-0.322147 -0.169224 0
0.407534 -0.458584 0
-0.122938 -0.0548064 0
-0.0425739 -0.244139 0
0.186292 0.0854643 0
-0.43363 0.083036 0
0.182577 -0.504668 0
0.293178 -0.308467 0
-0.367724 -0.0636544 0
0.146616 -0.376564 0
0.218904 -0.235566 0
-0.249962 -0.00543938 0
-0.0089367 -0.228062 0
0.181644 -0.295315 0
-0.0573023 -0.178556 0
-0.116356 -0.208505 0
0.0223041 -0.240312 0
0.0888472 -0.244716 0
-0.00531365 -0.267676 0
-0.120922 -0.221901 0
0.00504409 -0.183558 0
0.120792 -0.252878 0
-0.0433032 -0.30398 0
-0.118389 -0.254122 0
0.0454831 -0.225809 0
0.0790432 -0.27968 0
-0.0567553 -0.30541 0
-0.0831153 -0.270315 0
0.00682691 -0.273297 0
0.0508548 -0.32441 0
0.0176852 -0.337815 0
-0.0398697 -0.313783 0
-0.0652212 -0.305591 0
-0.0263634 -0.31665 0
0.0348363 -0.329056 0
0.0408395 -0.344549 0
-0.0155514 -0.35309 0
-0.0608583 -0.344279 0
-0.0409544 -0.337969 0
0.0143109 -0.355417 0
0.0435177 -0.382956 0
0.0273892 -0.391385 0
-0.00840726 -0.374921 0
-0.0300677 -0.3621 0
-0.0212436 -0.378482 0
0.00526521 -0.406567 0
0.0178479 -0.418178 0
0.00498948 -0.417368 0
-0.0121331 -0.419959 0
-0.0145006 -0.425498 0
-0.00716266 -0.429282 0
-0.00253523 -0.434928 0
-0.00332312 -0.446362 0
-0.00515452 -0.462248 0
-0.00549337 -0.477911 0
-0.00489094 -0.489575 0
-0.00412586 -0.495837 0
-0.00323683 -0.497462 0
-0.00240704 -0.495637 0
-0.00201161 -0.492046 0
-0.00186815 -0.488909 0
-0.00127819 -0.487739 0
0.000224362 -0.489301 0
0.00226391 -0.493715 0
0.00373984 -0.500376 0
0.00356866 -0.508012 0
0.00138169 -0.515057 0
-0.00233714 -0.520208 0
-0.00659968 -0.522909 0
-0.0104289 -0.523449 0
-0.0132027 -0.522759 0
-0.014734 -0.521916 0
0.0963638 -0.359915 0
0.4947 0.910828 0
-0.189203 0.165828 0
-0.537336 -0.0957645 0
0.196768 -0.0383925 0
0.25767 0.261692 0
-0.4563 -0.395839 0
-0.127689 0.722697 0
0.0174054 -0.228045 0
-0.414981 0.184137 0
0.337902 -0.141498 0
-0.264235 -0.118972 0
-0.0769505 0.284735 0
-0.108964 0.258289 0
0.0739926 0.0140098 0
-0.428583 0.296848 0
-0.00789166 0.120703 0
0.421946 -0.747848 0
0.000595648 0.0315931 0
-0.457151 0.164036 0
0.757342 -0.239187 0
-0.332616 -0.131916 0
0.186448 -0.578661 0
-0.145289 0.473669 0
-0.055576 -0.830709 0
0.576218 0.334402 0
-0.450318 0.193849 0
-0.123751 0.00297538 0
1.07874 -0.673826 0
-0.387214 0.479949 0
-0.520619 -0.083711 0
0.306518 -0.52677 0
0.446858 -0.524218 0
-0.216395 -0.166017 0
-0.0410215 -0.0182135 0
-0.0305586 0.0814572 0
-0.122778 -0.255247 0
0.145115 -0.411458 0
0.167035 -0.171831 0
-0.0858256 -0.155471 0
-0.102301 -0.231628 0
0.0237524 -0.22471 0
0.0446446 -0.207922 0
-0.0124913 -0.220271 0
-0.0183359 -0.220981 0
0.0144443 -0.213911 0
-0.0157778 -0.236803 0
-0.0323561 -0.248619 0
0.0243781 -0.234502 0
0.0258272 -0.243815 0
-0.0515208 -0.26628 0
-0.0492377 -0.25557 0
0.0301713 -0.250379 0
0.0354311 -0.277433 0
-0.026942 -0.292936 0
-0.0436935 -0.284213 0
-0.00805273 -0.288612 0
0.0158619 -0.307409 0
0.00455784 -0.312785 0
-0.023166 -0.316967 0
-0.0377513 -0.326809 0
-0.0194226 -0.332556 0
0.0141458 -0.32957 0
0.0198698 -0.326844 0
-0.0124245 -0.33688 0
-0.0423904 -0.351821 0
-0.0312263 -0.358483 0
0.00893311 -0.365318 0
0.0332705 -0.377055 0
0.0203324 -0.376798 0
-0.00807579 -0.367714 0
-0.0212495 -0.370188 0
-0.0139742 -0.388058 0
0.00106328 -0.406519 0
0.0096385 -0.414547 0
0.00444665 -0.414976 0
-0.00736739 -0.418588 0
-0.0124083 -0.426094 0
-0.00852885 -0.432373 0
-0.00387981 -0.438091 0
-0.00327401 -0.447777 0
-0.00466418 -0.462274 0
-0.00521524 -0.477499 0
-0.00467591 -0.489295 0
-0.0039237 -0.495504 0
-0.00333075 -0.49661 0
-0.002849 -0.49489 0
-0.00250944 -0.491827 0
-0.00205902 -0.489451 0
-0.00106475 -0.489017 0
0.000589936 -0.490937 0
0.00241505 -0.495065 0
0.00351732 -0.500865 0
0.00310048 -0.507427 0
0.000928485 -0.513604 0
-0.0025706 -0.518356 0
-0.00655806 -0.521137 0
-0.0101719 -0.522086 0
-0.0128272 -0.521902 0
-0.0143349 -0.521445 0
-0.0602458 -0.0900345 0
0.208307 -0.411924 0
-0.308876 -0.380117 0
0.14603 -0.290115 0
0.395305 -0.784496 0
-0.0201751 0.0572534 0
-0.522824 -1.26933 0
0.529199 0.0156024 0
-0.0744331 -0.422032 0
-0.1935 0.400417 0
-0.0416124 -0.0356587 0
-0.087723 0.061815 0
-0.213276 -0.299231 0
-0.100256 0.486627 0
0.0368754 -0.158753 0
0.160976 -0.478351 0
0.347656 0.110656 0
-0.102462 0.66493 0
-0.241229 0.131956 0
0.0511811 0.263316 0
0.164946 -0.779184 0
-0.207364 0.505296 0
0.137361 -0.0148505 0
0.0805331 -0.189729 0
-0.255972 -0.0692456 0
0.282133 -0.42947 0
0.18648 -0.0953708 0
-0.398416 0.200829 0
-0.146401 0.328061 0
-0.0401154 -0.78692 0
0.21163 -0.521413 0
0.0913447 0.255668 0
-0.256858 -0.00646739 0
-0.0743731 -0.413186 0
0.263396 -0.342547 0
0.100004 0.00409907 0
-0.192043 -0.021603 0
-0.0967161 -0.202015 0
0.131921 -0.249354 0
0.0857769 -0.237946 0
-0.09864 -0.274018 0
-0.0369997 -0.236031 0
0.0790955 -0.176209 0
0.000901404 -0.208375 0
-0.0362061 -0.226733 0
-0.011425 -0.176323 0
-0.0292094 -0.222905 0
0.017672 -0.283139 0
0.0495138 -0.257597 0
-0.0300932 -0.236333 0
-0.071021 -0.240723 0
-0.00864718 -0.254455 0
0.0345601 -0.278517 0
0.00997462 -0.287076 0
-0.0175626 -0.274017 0
-0.0191097 -0.275988 0
-0.0150655 -0.296203 0
-0.00902205 -0.307657 0
-0.00146334 -0.303818 0
-0.00720025 -0.31223 0
-0.0215071 -0.340023 0
-0.0192564 -0.348717 0
0.000416353 -0.324112 0
0.00816299 -0.312369 0
-0.010274 -0.333266 0
-0.0317122 -0.357884 0
-0.0246465 -0.370624 0
0.00709259 -0.373605 0
0.0261366 -0.368826 0
0.0138889 -0.364393 0
-0.00773037 -0.366982 0
-0.015155 -0.37721 0
-0.00984407 -0.392169 0
-0.00110434 -0.405272 0
0.00531783 -0.411804 0
0.00380877 -0.413458 0
-0.00475392 -0.417942 0
-0.0108672 -0.426247 0
-0.00929419 -0.43503 0
-0.00490694 -0.441934 0
-0.00335724 -0.449354 0
-0.00425663 -0.46142 0
-0.00481285 -0.476505 0
-0.0043399 -0.488678 0
-0.00370432 -0.494659 0
-0.00342602 -0.495432 0
-0.00333772 -0.493869 0
-0.00311428 -0.491669 0
-0.00239147 -0.490367 0
-0.000970133 -0.490717 0
0.000933946 -0.492746 0
0.00269233 -0.49625 0
0.00352757 -0.500978 0
0.00286468 -0.506467 0
0.000617475 -0.51193 0
-0.00278107 -0.516457 0
-0.00658584 -0.519426 0
-0.010031 -0.520788 0
-0.012583 -0.521036 0
-0.0140695 -0.520869 0
-0.00536036 -0.0597251 0
-0.18458 0.279789 0
0.373806 0.34643 0
-0.375087 0.517281 0
0.0151237 0.1068 0
0.0282799 0.56635 0
-0.12888 0.182826 0
0.30606 0.329574 0
0.260725 0.114658 0
0.0117908 0.673328 0
0.275177 -0.740735 0
-0.0919934 0.0266307 0
0.34485 -0.644081 0
-0.171621 0.0416969 0
-0.0162168 -0.459673 0
-0.531825 0.175225 0
0.268433 0.277052 0
-0.0514525 -0.136098 0
0.137961 -0.769908 0
-0.0577718 0.176509 0
-0.256156 -0.290629 0
0.127133 -0.127864 0
-0.0784984 0.589526 0
0.055632 -0.300156 0
0.0258387 -0.177858 0
0.163047 0.625885 0
0.192116 -0.343115 0
-0.225208 -0.388913 0
-0.0612864 -0.105182 0
0.334111 -0.451502 0
-0.00267058 -0.173911 0
-0.179703 0.210982 0
-0.0065737 0.0459297 0
-0.0729036 -0.285338 0
0.0869823 -0.338945 0
0.201702 -0.215318 0
-0.0672164 -0.191626 0
-0.173266 -0.104785 0
-0.0137243 -0.0334456 0
0.058944 -0.305468 0
0.0452977 -0.36322 0
0.00747995 -0.174655 0
-0.00034503 -0.183226 0
-0.010067 -0.212124 0
-0.027775 -0.208184 0
-0.0211149 -0.2053 0
-0.0116932 -0.212591 0
0.0234713 -0.252864 0
0.0244617 -0.274268 0
-0.0360844 -0.250191 0
-0.04079 -0.234018 0
0.00859914 -0.257361 0
0.0139068 -0.294237 0
-0.00792047 -0.285784 0
-0.00921739 -0.25393 0
-0.00862598 -0.269611 0
-0.0179617 -0.308935 0
-0.0162773 -0.3087 0
-0.0025161 -0.297718 0
0.000124555 -0.318911 0
-0.0143294 -0.346762 0
-0.0212832 -0.344026 0
-0.00711072 -0.322168 0
0.0031806 -0.312663 0
-0.0100154 -0.331693 0
-0.0252814 -0.364776 0
-0.0176785 -0.379087 0
0.0050198 -0.371887 0
0.0176513 -0.361883 0
0.00936393 -0.358157 0
-0.00574069 -0.367018 0
-0.0112293 -0.383651 0
-0.00760832 -0.394942 0
-0.00156789 -0.402516 0
0.00324619 -0.409417 0
0.00281788 -0.412603 0
-0.0035438 -0.416717 0
-0.00945799 -0.427133 0
-0.00946846 -0.438229 0
-0.00588448 -0.444756 0
-0.00370411 -0.450675 0
-0.0038834 -0.461473 0
-0.0043366 -0.475715 0
-0.00400058 -0.487666 0
-0.00354449 -0.493367 0
-0.00353995 -0.494174 0
-0.0038085 -0.492648 0
-0.00368795 -0.491585 0
-0.00273947 -0.491637 0
-0.000945112 -0.492802 0
0.00122198 -0.494712 0
0.00300324 -0.497297 0
0.00366803 -0.500786 0
0.0027913 -0.505214 0
0.000423708 -0.510084 0
-0.0029562 -0.514521 0
-0.00665112 -0.517754 0
-0.00997364 -0.519525 0
-0.0124424 -0.520146 0
-0.0139016 -0.520212 0
-0.315827 -0.118928 0
-0.198664 0.337346 0
0.142526 -0.554626 0
0.442837 0.461764 0
-0.158083 -0.151197 0
0.522436 -0.109917 0
-0.702982 0.123845 0
0.405381 0.236555 0
0.0466298 -0.545784 0
-0.352757 0.234402 0
0.413956 -0.343887 0
-0.491473 0.0813264 0
0.635159 -0.276221 0
-0.187749 0.392282 0
0.269327 0.211216 0
-0.406314 0.374979 0
0.217469 -0.528075 0
-0.0844749 0.240014 0
0.077855 -0.0145523 0
-0.0336826 0.515236 0
0.0747609 0.127278 0
-0.140604 -0.396629 0
0.417481 -0.372345 0
-0.175569 -0.300848 0
-0.171027 -0.389713 0
0.22915 -0.0118398 0
-0.0337328 -0.0289974 0
0.185426 -0.878666 0
0.323695 0.234493 0
-0.30649 0.433063 0
-0.322706 -0.299673 0
0.343692 -0.332183 0
0.294537 -0.228245 0
-0.254826 -0.0692516 0
-0.117987 -0.134016 0
0.160096 -0.203045 0
0.00780307 -0.218243 0
-0.0860609 -0.249904 0
-0.000347408 -0.0455096 0
-0.0067446 -0.133818 0
0.031406 -0.383395 0
0.0423913 -0.1909 0
-0.0506374 -0.0920584 0
-0.0198581 -0.267468 0
0.0282571 -0.291155 0
-0.0208875 -0.173255 0
-0.0278212 -0.177448 0
0.00986933 -0.270296 0
-0.00160756 -0.258849 0
-0.0229588 -0.242866 0
0.00688059 -0.267258 0
0.0210699 -0.266216 0
-0.0184901 -0.271774 0
-0.0300885 -0.281334 0
-0.000979475 -0.257658 0
0.0013154 -0.262779 0
-0.0187867 -0.307474 0
-0.0151397 -0.323163 0
0.000566833 -0.305585 0
-0.003064 -0.310225 0
-0.0166596 -0.338713 0
-0.0170712 -0.344114 0
-0.00687754 -0.322852 0
-0.00277434 -0.317391 0
-0.0103367 -0.340826 0
-0.0183727 -0.368481 0
-0.0133633 -0.376807 0
0.000934538 -0.367444 0
0.00952795 -0.356037 0
0.00634696 -0.356054 0
-0.00285266 -0.371395 0
-0.00839674 -0.387368 0
-0.00630735 -0.394781 0
-0.000815329 -0.401149 0
0.00254541 -0.407228 0
0.00148037 -0.410398 0
-0.00330709 -0.416858 0
-0.00819145 -0.429269 0
-0.00920167 -0.440609 0
-0.00669311 -0.446683 0
-0.00428347 -0.452054 0
-0.00373093 -0.462121 0
-0.003906 -0.475346 0
-0.00370277 -0.486394 0
-0.00347806 -0.491415 0
-0.00369692 -0.49223 0
-0.00412624 -0.49178 0
-0.00410742 -0.49162 0
-0.00302938 -0.493164 0
-0.000991523 -0.495103 0
0.00139499 -0.496718 0
0.00326506 -0.49821 0
0.00386581 -0.500388 0
0.00284201 -0.503802 0
0.000350426 -0.508187 0
-0.00306605 -0.512628 0
-0.00671993 -0.516165 0
-0.00997402 -0.518327 0
-0.0123889 -0.519269 0
-0.013825 -0.519522 0
-0.0906189 -0.336834 0
-0.176182 0.121205 0
0.200815 -0.79428 0
-0.619547 0.364916 0
-0.16261 -0.585069 0
0.113329 -0.358936 0
-0.557787 -0.397804 0
0.069022 0.0763167 0
-0.475372 -0.861149 0
0.308516 -0.165 0
0.171317 0.0734973 0
-0.361353 -0.424652 0
-0.377575 0.200722 0
0.448778 -0.335166 0
-0.211116 -0.44705 0
0.0211172 -0.421302 0
-0.144639 0.393714 0
0.315797 -0.682317 0
-0.57872 0.326307 0
-0.095282 -0.230257 0
0.0555094 -0.364861 0