<?xml version='1.0' encoding='UTF-8'?>
<VTKFile byte_order='LittleEndian' version='0.1' type = 'UnstructuredGrid'>
<UnstructuredGrid>
<FieldData>
<DataArray type='Float64' Name='Time' NumberOfComponents='1' NumberOfTuples='1' format='ascii'>
4.921
</DataArray>
</FieldData>
<Piece NumberOfCells='808' NumberOfPoints='808'>
<Points>
<DataArray NumberOfComponents='3' type='Float64' Name='position' format='ascii'>
-0.00201484 -0.00174893 0
-0.00419166 0.0267257 0
-0.00975633 0.0495447 0
-0.0071515 0.0874482 0
-0.00751351 0.0950629 0
-0.0010651 0.123094 0
-0.00752124 0.150103 0
-0.00533823 0.177438 0
0.0282835 -0.00453964 0
0.0444678 -0.0062981 0
0.0755701 -0.00406963 0
0.0971091 -0.00277907 0
0.123011 -0.00273326 0
0.153998 -0.00656833 0
0.1759 -0.0139203 0
0.204029 -0.0159187 0
0.207148 -0.010506 0
0.231942 -0.0152915 0
0.251653 -0.026147 0
0.296709 -0.0299744 0
0.316809 -0.0455706 0
0.334522 -0.00131233 0
0.329027 -0.876032 0
0.362545 -0.876071 0
0.406495 -0.854404 0
0.447677 -0.853843 0
0.450862 -0.839554 0
0.478361 -0.831147 0
0.500818 -0.81957 0
0.529486 -0.820969 0
0.568138 -0.818207 0
0.581439 -0.814381 0
0.608652 -0.825064 0
0.648177 -0.813937 0
0.64861 -0.828283 0
0.65622 -0.866406 0
0.713782 -0.831606 0
0.753446 -0.844757 0
0.777662 -0.816195 0
0.813612 -0.821026 0
0.843434 -0.809912 0
0.840008 -0.8284 0
0.893277 -0.86509 0
0.661814 -1.22458 0
0.928704 -0.963571 0
0.951479 -0.950275 0
0.980917 -0.972571 0
0.990214 -0.9875 0
1.00159 -1.01881 0
1.02749 -1.05079 0
1.06273 -1.06994 0
1.10322 -1.07742 0
1.13434 -1.10214 0
1.14873 -1.1343 0
1.16016 -1.18087 0
1.18954 -1.20886 0
1.17515 -1.22007 0
1.22654 -1.22295 0
1.27114 -1.21217 0
1.27682 -1.23495 0
1.34033 -1.25551 0
1.32788 -1.28501 0
1.37798 -1.31191 0
1.40534 -1.30952 0
1.43937 -1.34145 0
1.43915 -1.3314 0
1.47628 -1.30476 0
1.51005 -1.32872 0
1.51848 -1.33688 0
1.56671 -1.35601 0
1.58253 -1.38545 0
1.60426 -1.37963 0
1.6353 -1.39139 0
1.63891 -1.40309 0
1.66884 -1.41614 0
1.68624 -1.42627 0
1.72924 -1.44113 0
1.76756 -1.42605 0
1.80303 -1.45186 0
1.82028 -1.47238 0
1.81239 -1.51019 0
1.84939 -1.51143 0
1.86296 -1.48682 0
1.90793 -1.51608 0
1.93839 -1.53036 0
1.94888 -1.51823 0
1.98393 -1.50495 0
2.00748 -1.52002 0
2.01227 -1.54661 0
2.03694 -1.56103 0
2.06792 -1.54964 0
2.09837 -1.54101 0
2.13411 -1.56103 0
2.14678 -1.57828 0
2.17068 -1.57144 0
2.18257 -1.55325 0
2.21352 -1.5556 0
2.24738 -1.56957 0
2.26084 -1.57947 0
2.27702 -1.5842 0
2.30735 -1.58131 0
2.33994 -1.57132 0
2.36631 -1.56426 0
2.38638 -1.56839 0
2.39909 -1.58229 0
2.41497 -1.5872 0
2.44479 -1.57983 0
2.48799 -1.56842 0
0.00328495 0.00851533 0
0.0692819 0.0350328 0
0.0807994 0.031744 0
0.114245 0.0407947 0
0.133338 0.0363639 0
0.142601 0.0302457 0
0.14282 0.0159207 0
0.195805 0.0300738 0
0.204223 0.0124035 0
0.227657 0.0155585 0
0.249104 0.0329018 0
0.301117 0.0126196 0
0.336928 0.0358546 0
0.357462 0.0547936 0
0.31811 -0.855634 0
0.371555 -0.826568 0
0.40034 -0.812713 0
0.443408 -0.814087 0
0.450559 -0.821459 0
0.499944 -0.772641 0
0.509607 -0.780358 0
0.542985 -0.803763 0
0.562354 -0.795038 0
0.601718 -0.806929 0
0.627957 -0.810458 0
0.639581 -0.806871 0
0.65481 -0.806453 0
0.682613 -0.804245 0
0.699901 -0.780809 0
0.740881 -0.807657 0
0.769823 -0.7979 0
0.808875 -0.808945 0
0.853072 -0.807247 0
0.862581 -0.823637 0
0.87449 -0.827952 0
0.887086 -0.822146 0
0.931003 -0.871348 0
0.956494 -0.899822 0
0.981841 -0.94083 0
0.999385 -0.97033 0
1.01778 -0.990229 0
1.01348 -0.99955 0
1.04767 -1.05981 0
1.11873 -1.05905 0
1.14601 -1.06855 0
1.18234 -1.08824 0
1.1916 -1.09284 0
1.1971 -1.10141 0
1.20743 -1.13847 0
1.26704 -1.19018 0
1.3035 -1.22807 0
1.31895 -1.21725 0
1.32691 -1.24078 0
1.33905 -1.2432 0
1.3687 -1.25579 0
1.4076 -1.27966 0
1.42414 -1.28545 0
1.4608 -1.30185 0
1.4879 -1.29247 0
1.51304 -1.30494 0
1.53 -1.32538 0
1.55744 -1.34832 0
1.57667 -1.35365 0
1.60259 -1.36059 0
1.65225 -1.35398 0
1.66796 -1.35139 0
1.66908 -1.38012 0
1.66928 -1.39081 0
1.72829 -1.42657 0
1.76896 -1.43597 0
1.77995 -1.43702 0
1.81345 -1.436 0
1.84014 -1.45365 0
1.84809 -1.4691 0
1.88127 -1.49144 0
1.90302 -1.48245 0
1.92538 -1.48321 0
1.9497 -1.49347 0
1.9725 -1.49276 0
1.99624 -1.50108 0
2.02463 -1.5163 0
2.04167 -1.51976 0
2.06581 -1.52751 0
2.10238 -1.52755 0
2.12352 -1.5308 0
2.14969 -1.54628 0
2.17398 -1.53999 0
2.18583 -1.53472 0
2.21171 -1.53493 0
2.24261 -1.54024 0
2.26567 -1.54675 0
2.28129 -1.55549 0
2.30482 -1.55844 0
2.33696 -1.54794 0
2.36428 -1.53951 0
2.38324 -1.54475 0
2.39922 -1.55562 0
2.42048 -1.55998 0
2.45011 -1.55551 0
2.48412 -1.55038 0
0.00870067 0.0280575 0
0.0534006 0.0411467 0
0.0764118 0.0658293 0
0.103464 0.0554389 0
0.116933 0.0657694 0
0.139367 0.0584813 0
0.182312 0.0723423 0
0.221729 0.0552244 0
0.217303 0.0425087 0
0.265152 0.0722224 0
0.313728 0.118931 0
0.293524 0.0953878 0
0.332679 0.0984963 0
0.342407 0.0961786 0
0.38406 0.103462 0
0.374161 -0.802583 0
0.417273 -0.810347 0
0.424952 -0.789113 0
0.45112 -0.783157 0
0.472577 -0.774517 0
0.523548 -0.781858 0
0.534259 -0.775574 0
0.582352 -0.771817 0
0.603432 -0.786957 0
0.623067 -0.78678 0
0.658432 -0.766389 0
0.66324 -0.7559 0
0.68135 -0.775951 0
0.710081 -0.781206 0
0.73401 -0.791865 0
0.766813 -0.780445 0
0.818587 -0.805712 0
0.852455 -0.797148 0
0.860735 -0.791132 0
0.867971 -0.783923 0
0.895877 -0.795325 0
0.926988 -0.815649 0
0.961977 -0.854362 0
0.971605 -0.912806 0
1.00312 -0.949604 0
1.02077 -0.976094 0
1.04256 -0.983125 0
1.05102 -1.01619 0
1.11247 -1.04576 0
1.14571 -1.04811 0
1.17721 -1.07142 0
1.19394 -1.08089 0
1.21858 -1.09927 0
1.20593 -1.10616 0
1.24754 -1.15873 0
1.27742 -1.20115 0
1.30636 -1.18095 0
1.32044 -1.19629 0
1.32814 -1.18951 0
1.3446 -1.21341 0
1.39306 -1.26409 0
1.42044 -1.25871 0
1.45486 -1.2623 0
1.48891 -1.25448 0
1.50367 -1.27739 0
1.53284 -1.31266 0
1.55027 -1.31569 0
1.58146 -1.33681 0
1.60252 -1.33472 0
1.64201 -1.34181 0
1.68316 -1.33829 0
1.67796 -1.35327 0
1.71097 -1.35794 0
1.72911 -1.36822 0
1.75701 -1.40119 0
1.78951 -1.43357 0
1.8158 -1.40866 0
1.83079 -1.43331 0
1.85936 -1.44612 0
1.88994 -1.46715 0
1.90351 -1.46764 0
1.91767 -1.44016 0
1.94451 -1.45615 0
1.98202 -1.48632 0
2.0059 -1.48135 0
2.02336 -1.47572 0
2.04889 -1.49166 0
2.06755 -1.50577 0
2.08709 -1.50443 0
2.12937 -1.5049 0
2.15847 -1.50485 0
2.16761 -1.51258 0
2.18424 -1.51764 0
2.21292 -1.51685 0
2.24265 -1.50865 0
2.26496 -1.51358 0
2.28373 -1.52943 0
2.3052 -1.53343 0
2.33464 -1.52506 0
2.36273 -1.51585 0
2.3812 -1.52087 0
2.39866 -1.5311 0
2.42378 -1.53417 0
2.45431 -1.53038 0
2.48403 -1.52564 0
0.0250661 0.0941123 0
0.0222248 0.061216 0
0.059127 0.0732189 0
0.0852734 0.101154 0
0.109779 0.0821485 0
0.14895 0.0556239 0
0.16287 0.0818801 0
0.192836 0.0915011 0
0.210573 0.105468 0
0.257909 0.123069 0
0.262899 0.113605 0
0.285549 0.124551 0
0.314359 0.129509 0
0.360718 0.123776 0
0.382674 0.131065 0
0.38726 -0.787223 0
0.405876 -0.780595 0
0.437387 -0.776302 0
0.469786 -0.759991 0
0.493027 -0.74963 0
0.519092 -0.765735 0
0.537893 -0.743082 0
0.565902 -0.772535 0
0.600056 -0.756381 0
0.626436 -0.73595 0
0.647441 -0.738426 0
0.672832 -0.758775 0
0.695947 -0.753458 0
0.710794 -0.763413 0
0.72777 -0.770591 0
0.738694 -0.77561 0
0.793133 -0.768148 0
0.823069 -0.768411 0
0.867677 -0.749393 0
0.882818 -0.753913 0
0.921819 -0.768073 0
0.928343 -0.783104 0
0.980918 -0.83008 0
0.965264 -0.887662 0
1.00283 -0.908162 0
1.05398 -0.923934 0
1.03838 -0.969275 0
1.07455 -0.981522 0
1.1086 -0.997337 0
1.14083 -1.01445 0
1.1356 -1.05159 0
1.17777 -1.06134 0
1.2102 -1.07312 0
1.21146 -1.11454 0
1.23766 -1.11858 0
1.25726 -1.14185 0
1.26883 -1.14196 0
1.30282 -1.16226 0
1.34088 -1.18079 0
1.36282 -1.1824 0
1.39882 -1.23311 0
1.42557 -1.24069 0
1.43641 -1.2183 0
1.47411 -1.22722 0
1.49127 -1.21702 0
1.52242 -1.26119 0
1.54747 -1.29194 0
1.56489 -1.31376 0
1.59502 -1.32051 0
1.61941 -1.31815 0
1.6665 -1.32228 0
1.69209 -1.33379 0
1.71359 -1.34303 0
1.72853 -1.33339 0
1.74515 -1.34794 0
1.78236 -1.40612 0
1.80401 -1.3769 0
1.82858 -1.38286 0
1.86349 -1.42753 0
1.88886 -1.43714 0
1.89513 -1.42404 0
1.92501 -1.41612 0
1.9479 -1.43765 0
1.96942 -1.4628 0
2.00077 -1.45961 0
2.02945 -1.44375 0
2.04857 -1.46074 0
2.06654 -1.48726 0
2.09636 -1.48646 0
2.12906 -1.46811 0
2.15182 -1.47277 0
2.16963 -1.49176 0
2.18692 -1.49666 0
2.21001 -1.49097 0
2.24111 -1.48294 0
2.2684 -1.48669 0
2.28628 -1.49955 0
2.30429 -1.50819 0
2.33304 -1.50193 0
2.36233 -1.49191 0
2.38118 -1.49714 0
2.3986 -1.50744 0
2.42412 -1.50853 0
2.45512 -1.50179 0
2.48438 -1.49569 0
0.0375474 0.0957245 0
0.0523222 0.121823 0
0.10085 0.107313 0
0.095761 0.115957 0
0.101143 0.124423 0
0.129086 0.0798356 0
0.157872 0.10746 0
0.183416 0.103264 0
0.21423 0.135005 0
0.236512 0.152442 0
0.262709 0.147543 0
0.294489 0.134187 0
0.327159 0.154199 0
0.343572 0.164552 0
0.384844 0.16068 0
0.425227 0.202833 0
0.398127 -0.771608 0
0.439583 -0.754197 0
0.462486 -0.725377 0
0.482042 -0.714327 0
0.480397 -0.730964 0
0.528577 -0.721657 0
0.576684 -0.723318 0
0.605419 -0.725413 0
0.63236 -0.712824 0
0.662567 -0.699359 0
0.684492 -0.730107 0
0.700401 -0.76496 0
0.696914 -0.736115 0
0.742426 -0.7304 0
0.769351 -0.765882 0
0.800162 -0.759993 0
0.842341 -0.748159 0
0.88273 -0.703757 0
0.901046 -0.725264 0
0.890611 -0.760179 0
0.942698 -0.775794 0
0.982131 -0.806525 0
0.999886 -0.839653 0
1.00804 -0.880355 0
1.04044 -0.896831 0
1.06572 -0.927843 0
1.08083 -0.971741 0
1.09229 -0.970863 0
1.12917 -0.985262 0
1.16976 -1.01849 0
1.19351 -1.01215 0
1.19663 -1.03022 0
1.21711 -1.08378 0
1.24564 -1.10782 0
1.25791 -1.12498 0
1.28453 -1.11996 0
1.33323 -1.13094 0
1.34481 -1.12863 0
1.36513 -1.14373 0
1.39499 -1.19964 0
1.4082 -1.19681 0
1.45145 -1.19926 0
1.47242 -1.21682 0
1.50516 -1.21559 0
1.51501 -1.23203 0
1.56252 -1.2583 0
1.57527 -1.2655 0
1.62192 -1.30182 0
1.63464 -1.26887 0
1.65395 -1.30813 0
1.6977 -1.31376 0
1.68827 -1.32343 0
1.73815 -1.31785 0
1.767 -1.32225 0
1.77786 -1.35169 0
1.81338 -1.3655 0
1.83216 -1.35589 0
1.86264 -1.38046 0
1.8766 -1.41273 0
1.89009 -1.39851 0
1.92727 -1.38283 0
1.95312 -1.41583 0
1.96557 -1.44069 0
1.99203 -1.4315 0
2.02902 -1.42336 0
2.05699 -1.44517 0
2.07087 -1.4602 0
2.09496 -1.4542 0
2.12673 -1.44249 0
2.15115 -1.44862 0
2.17037 -1.46707 0
2.18918 -1.47432 0
2.21046 -1.46546 0
2.23904 -1.45594 0
2.26864 -1.46227 0
2.28896 -1.4748 0
2.30541 -1.48015 0
2.33134 -1.47363 0
2.36209 -1.46881 0
2.38341 -1.47516 0
2.39977 -1.4816 0
2.42274 -1.48085 0
2.45272 -1.47422 0
2.48276 -1.46741 0
0.0330498 0.130396 0
0.0497424 0.154236 0
0.0866738 0.148423 0
0.0939604 0.15983 0
0.100588 0.151687 0
0.134074 0.130106 0
0.16087 0.177581 0
0.183133 0.155521 0
0.212185 0.147439 0
0.22938 0.159722 0
0.264269 0.170005 0
0.29035 0.172494 0
0.325615 0.188623 0
0.368497 0.199091 0
0.377259 0.206892 0
0.386863 0.195572 0
0.441897 0.236153 0
0.462606 -0.704793 0
0.445951 -0.701932 0
0.481044 -0.699493 0
0.507308 -0.695981 0
0.546203 -0.697307 0
0.587953 -0.707424 0
0.600176 -0.711138 0
0.616447 -0.692934 0
0.65365 -0.685671 0
0.673143 -0.70838 0
0.715435 -0.706629 0
0.72831 -0.694003 0
0.745372 -0.696422 0
0.769233 -0.701609 0
0.79871 -0.710233 0
0.849937 -0.698766 0
0.877624 -0.693525 0
0.916022 -0.705147 0
0.912528 -0.716504 0
0.922532 -0.757629 0
0.990441 -0.800747 0
0.990789 -0.817779 0
1.00861 -0.861749 0
1.03511 -0.883635 0
1.08501 -0.914006 0
1.08343 -0.95389 0
1.0965 -0.932003 0
1.13153 -0.940025 0
1.14961 -0.978226 0
1.18092 -1.00035 0
1.21169 -1.00263 0
1.22131 -1.03778 0
1.26274 -1.06883 0
1.28864 -1.09084 0
1.31153 -1.08235 0
1.34523 -1.11234 0
1.35712 -1.11949 0
1.36571 -1.10604 0
1.39282 -1.14895 0
1.41061 -1.15555 0
1.43982 -1.15252 0
1.49048 -1.20201 0
1.50142 -1.20433 0
1.53052 -1.19925 0
1.56437 -1.24206 0
1.59624 -1.2411 0
1.6243 -1.27796 0
1.65465 -1.27889 0
1.66292 -1.27107 0
1.69828 -1.28955 0
1.71157 -1.29252 0
1.738 -1.29023 0
1.7561 -1.29531 0
1.79129 -1.31993 0
1.80593 -1.33119 0
1.82816 -1.33039 0
1.85983 -1.34668 0
1.87442 -1.36464 0
1.88443 -1.37872 0
1.93041 -1.37079 0
1.95428 -1.39353 0
1.96189 -1.40164 0
1.99399 -1.40617 0
2.02752 -1.41305 0
2.05392 -1.4153 0
2.07414 -1.42144 0
2.09021 -1.41867 0
2.12513 -1.41966 0
2.15336 -1.42941 0
2.17312 -1.44358 0
2.18981 -1.44415 0
2.21065 -1.43905 0
2.23927 -1.4351 0
2.26866 -1.44001 0
2.28909 -1.44602 0
2.30552 -1.45031 0
2.33099 -1.44708 0
2.36242 -1.44482 0
2.38546 -1.44957 0
2.40166 -1.45292 0
2.42189 -1.45214 0
2.44995 -1.44848 0
2.48095 -1.44397 0
0.0326116 0.158616 0
0.0692454 0.160498 0
0.0688444 0.199803 0
0.0984156 0.207103 0
0.122457 0.182102 0
0.134739 0.180496 0
0.151303 0.174335 0
0.17265 0.182541 0
0.221239 0.18357 0
0.237771 0.185096 0
0.266886 0.191772 0
0.31777 0.197123 0
0.34162 0.209788 0
0.366663 0.213765 0
0.374716 0.225281 0
0.416233 0.232784 0
1.04425 -0.0799615 0
0.438976 -0.684996 0
0.440544 -0.664048 0
0.473231 -0.67004 0
0.501088 -0.668152 0
0.496755 -0.686875 0
0.546981 -0.680204 0
0.568596 -0.688083 0
0.599667 -0.668464 0
0.6438 -0.647218 0
0.689676 -0.669134 0
0.72146 -0.679688 0
0.752834 -0.676243 0
0.731167 -0.684151 0
0.783922 -0.660452 0
0.803081 -0.671428 0
0.830228 -0.694955 0
0.830448 -0.680549 0
0.926231 -0.679851 0
0.920031 -0.670612 0
0.930528 -0.697459 0
0.992619 -0.700266 0
0.976191 -0.814691 0
1.01638 -0.846878 0
1.03003 -0.855823 0
1.07715 -0.873939 0
1.09181 -0.90389 0
1.09391 -0.921506 0
1.11666 -0.935796 0
1.16484 -0.921059 0
1.19723 -0.955234 0
1.2171 -0.983196 0
1.22033 -1.02772 0
1.23587 -1.03838 0
1.27958 -1.06305 0
1.31819 -1.05843 0
1.3266 -1.07182 0
1.3551 -1.08839 0
1.38211 -1.10795 0
1.39396 -1.11578 0
1.41917 -1.12628 0
1.45014 -1.15036 0
1.47197 -1.17515 0
1.49331 -1.17165 0
1.53613 -1.18991 0
1.56934 -1.2073 0
1.58328 -1.21807 0
1.59987 -1.22032 0
1.63931 -1.23865 0
1.65515 -1.25028 0
1.69184 -1.26782 0
1.70487 -1.25908 0
1.73732 -1.24783 0
1.76478 -1.2796 0
1.78211 -1.28522 0
1.80339 -1.28606 0
1.83958 -1.30879 0
1.85952 -1.31077 0
1.87443 -1.33174 0
1.90704 -1.35699 0
1.93362 -1.35617 0
1.94522 -1.33903 0
1.96252 -1.36147 0
1.998 -1.39059 0
2.03306 -1.39775 0
2.05642 -1.38188 0
2.07306 -1.37631 0
2.08742 -1.39178 0
2.12069 -1.40368 0
2.15547 -1.40787 0
2.17623 -1.4095 0
2.18924 -1.41291 0
2.21051 -1.41479 0
2.24047 -1.4134 0
2.26977 -1.41527 0
2.28839 -1.41982 0
2.30392 -1.42001 0
2.33059 -1.42002 0
2.36315 -1.42118 0
2.38722 -1.42196 0
2.40312 -1.42151 0
2.42212 -1.42243 0
2.44968 -1.42447 0
2.48197 -1.42717 0
0.0367633 0.177752 0
0.0447262 0.202195 0
0.0718643 0.236718 0
0.0896846 0.22506 0
0.0966688 0.217626 0
0.141774 0.206797 0
0.173946 0.222391 0
0.193811 0.197363 0
0.220823 0.214317 0
0.248537 0.20971 0
0.272949 0.230486 0
0.289863 0.234677 0
0.3317 0.232709 0
0.34387 0.224487 0
0.38281 0.231393 0
0.409912 0.251755 0
0.435195 0.257592 0
0.43851 -0.632479 0
0.462518 -0.651744 0
0.480128 -0.652204 0
0.575325 -0.478575 0
0.569014 -0.438031 0
0.534605 -0.664557 0
0.562538 -0.668014 0
0.593028 -0.630543 0
0.637056 -0.636726 0
0.675408 -0.641493 0
0.699159 -0.661206 0
0.722292 -0.643978 0
0.771797 -0.637029 0
0.785452 -0.635543 0
0.794956 -0.659433 0
0.835713 -0.663057 0
0.85478 -0.671742 0
0.878048 -0.660336 0
0.915547 -0.652647 0
0.939302 -0.680015 0
0.984485 -0.668714 0
1.46072 -0.588499 0
1.00571 -0.825401 0
1.03378 -0.829703 0
1.07137 -0.844711 0
1.10704 -0.867568 0
1.12424 -0.879334 0
1.15361 -0.875688 0
1.17521 -0.87609 0
1.21017 -0.884252 0
1.20504 -0.98839 0
1.21015 -1.01359 0
1.23059 -1.01199 0
1.2895 -1.03859 0
1.32152 -1.04169 0
1.31182 -1.04415 0
1.3611 -1.062 0
1.39163 -1.06849 0
1.39134 -1.08281 0
1.40525 -1.11114 0
1.43503 -1.10647 0
1.46668 -1.14352 0
1.48621 -1.15972 0
1.53964 -1.14089 0
1.55251 -1.18131 0
1.60052 -1.18314 0
1.5998 -1.20708 0
1.61945 -1.20553 0
1.65858 -1.22354 0
1.69243 -1.23447 0
1.71568 -1.24384 0
1.72398 -1.23468 0
1.75399 -1.23504 0
1.7839 -1.2553 0
1.8031 -1.27001 0
1.82845 -1.28907 0
1.84591 -1.27448 0
1.87856 -1.31007 0
1.91946 -1.35088 0
1.92885 -1.32903 0
1.93213 -1.29595 0
1.96241 -1.33098 0
2.00524 -1.38092 0
2.02886 -1.37771 0
2.05644 -1.3424 0
2.07384 -1.3427 0
2.09165 -1.37739 0
2.12131 -1.39098 0
2.15029 -1.37503 0
2.17877 -1.37471 0
2.18889 -1.38321 0
2.2072 -1.39208 0
2.24438 -1.39463 0
2.26731 -1.38824 0
2.29052 -1.38728 0
2.30051 -1.38973 0
2.33078 -1.39583 0
2.36637 -1.39882 0
2.38872 -1.3947 0
2.40206 -1.38971 0
2.42202 -1.392 0
2.45135 -1.40097 0
2.48622 -1.41104 0
</DataArray>
</Points>
<PointData>
<DataArray NumberOfComponents='1' type='Int32' Name='Particle Type' format='ascii'>
0
0
0
0
0
0
0
0
0
0
0
0
0
0
0
0
0
0
0
0
0
0
1
1
1
1
1
1
1
1
1
1
1
1
1
1
1
1
1
1
1
1
1
1
1
1
1
1
1
1
1
1
1
1
1
1
1
1
1
1
1
1
1
1
1
1
1
1
1
1
1
1
1
1
1
1
1
1
1
1
1
1
1
1
1
1
1
1
1
1
1
1
1
1
1
1
1
1
1
1
1
1
1
1
1
1
1
1
1
1
1
1
1
1
1
1
1
1
1
1
1
1
1
1
1
1
1
1
1
1
1
1
1
1
1
1
1
1
1
1
1
1
1
1
1
1
1
1
1
1
1
1
1
1
1
1
1
1
1
1
1
1
1
1
1
1
1
1
1
1
1
1
1
1
1
1
1
1
1
1
1
1
1
1
1
1
1
1
1
1
1
1
1
1
1
1
1
1
1
1
1
1
1
1
1
1
1
1
1
1
1
1
1
1
1
1
1
1
1
1
1
1
1
1
1
1
1
1
1
1
1
1
1
1
1
1
1
1
1
1
1
1
1
1
1
1
1
1
1
1
1
1
1
1
1
1
1
1
1
1
1
1
1
1
1
1
1
1
1
1
1
1
1
1
1
1
1
1
1
1
1
1
1
1
1
1
1
1
1
1
1
1
1
1
1
1
1
1
1
1
1
1
1
1
1
1
1
1
1
1
1
1
1
1
1
1
1
1
1
1
1
1
1
1
1
1
1
1
1
1
1
1
1
1
1
1
1
1
1
1
1
1
1
1
1
1
1
1
1
1
1
1
1
1
1
1
1
1
1
1
1
1
1
1
1
1
1
1
1
1
1
1
1
1
1
1
1
1
1
1
1
1
1
1
1
1
1
1
1
1
1
1
1
1
1
1
1
1
1
1
1
1
1
1
1
1
1
1
1
1
1
1
1
1
1
1
1
1
1
1
1
1
1
1
1
1
1
1
1
1
1
1
1
1
1
1
1
1
1
1
1
1
1
1
1
1
1
1
1
1
1
1
1
1
1
1
1
1
1
1
1
1
1
1
1
1
1
1
1
1
1
1
1
1
1
1
1
1
1
1
1
1
1
1
1
1
1
1
1
1
1
1
1
1
1
1
1
1
1
1
1
1
1
1
1
1
1
1
1
1
1
1
1
1
1
1
1
1
1
1
1
1
1
1
1
1
1
1
1
1
1
1
1
1
1
1
1
1
1
1
1
1
1
1
1
1
1
1
1
1
1
1
1
1
1
1
1
1
1
1
1
1
1
1
1
1
1
1
1
1
1
1
1
1
1
1
1
1
1
1
1
1
1
1
1
1
1
1
1
1
1
1
1
1
1
1
1
1
1
1
1
1
1
1
1
1
1
1
1
1
1
1
1
1
1
1
1
1
1
1
1
1
1
1
1
1
1
1
1
1
1
1
1
1
1
1
1
1
1
1
1
1
1
1
1
1
1
1
1
1
1
1
1
1
1
1
1
1
1
1
1
1
1
1
1
1
1
1
1
1
1
1
1
1
1
1
1
1
1
1
1
1
1
1
1
1
1
1
1
1
1
1
1
1
1
1
1
1
1
1
1
1
1
1
1
1
1
1
1
1
1
1
1
1
1
1
1
1
1
1
1
1
1
1
1
1
1
1
1
1
1
1
1
1
1
1
1
1
1
1
1
1
1
1
1
1
1
1
1
1
1
1
1
1
1
1
1
1
1
1
1
1
1
1
1
1
1
1
1
1
1
1
1
1
1
1
1
1
1
1
1
1
1
1
1
1
1
1
1
1
1
1
1
1
1
1
1
1
1
1
1
1
1
1
1
1
1
1
</DataArray>
<DataArray NumberOfComponents='3' type='Float64' Name='Velocity' format='ascii'>
-0.735997 -0.2641 0
-0.768872 0.338967 0
-1.0952 0.111387 0
-0.620877 0.952867 0
-0.788915 -0.18557 0
-0.524627 -0.330552 0
-1.28465 -0.0832856 0
-0.772271 0.333739 0
0.0781299 -0.92065 0
-0.569497 -1.09535 0
0.192672 -0.588781 0
-0.242944 -0.465911 0
-0.409616 -0.181202 0
0.376891 -0.837306 0
0.0480942 -1.01038 0
-0.425703 -0.836261 0
-0.272176 -0.263387 0
0.0826538 -0.639002 0
-0.855123 -0.261107 0
0.918981 -0.937343 0
0.0245939 -0.7824 0
-0.0083596 -0.175386 0
0.579247 -1.42261 0
-0.34782 -0.723313 0
-0.384533 -0.541577 0
0.0167664 -1.15753 0
0.845289 -1.62335 0
-0.479925 -0.723321 0
-0.288628 -0.852826 0
0.501283 -0.79964 0
0.298963 -1.6772 0
0.386887 -1.92365 0
0.659379 -0.820476 0
-0.356307 -1.72477 0
0.303118 -0.684877 0
0.0794249 -1.31753 0
-0.404733 -0.521168 0
-0.0619601 -0.672332 0
-0.0197999 -1.75893 0
-0.181362 -0.931138 0
0.0988279 -0.395217 0
0.886921 -0.320269 0
0.289983 -0.837191 0
-0.511353 -1.07702 0
-0.499858 -0.972505 0
0.22302 -1.13482 0
0.216934 -0.696183 0
-0.255466 -0.959739 0
0.0412828 0.130484 0
-0.773237 0.0127558 0
0.0307264 -0.612363 0
0.510857 -1.7731 0
1.20598 0.980902 0
1.05107 0.297012 0
-0.601258 -0.134325 0
0.468157 -0.790498 0
-0.263084 -0.0542625 0
1.25713 -0.361616 0
-0.148566 -1.55594 0
-0.292792 -0.183559 0
0.616073 0.302557 0
-0.473527 -0.226412 0
-0.20203 -0.329523 0
-0.317597 -0.87726 0
-0.337414 0.421979 0
-0.561494 -0.518526 0
-0.214384 -1.27327 0
0.716657 -0.811644 0
-0.590915 0.257683 0
-0.205531 -0.797963 0
0.137333 0.65762 0
-0.175825 -1.37583 0
-0.252578 -0.723743 0
0.277294 -0.278178 0
-0.156063 0.207238 0
-0.190405 -0.0109582 0
1.48304 -0.435694 0
-0.334091 -0.332283 0
-0.32045 -0.127761 0
1.37749 0.50199 0
-0.096735 0.284134 0
0.440639 -1.53268 0
-0.638208 0.585619 0
-0.428594 0.0865443 0
0.331544 -0.18387 0
-0.131681 -1.06399 0
-0.172945 -0.38943 0
0.411182 0.183872 0
0.375459 0.513675 0
-0.227346 -0.526971 0
-0.143696 -0.956873 0
-0.439249 -0.17317 0
0.115269 0.218177 0
0.241477 -0.131462 0
0.146089 -0.750992 0
0.258885 -0.405827 0
-0.425641 0.0616513 0
-0.00455886 -0.139636 0
0.276646 -0.431417 0
0.00428481 -0.338858 0
-0.0444198 -0.121673 0
0.219582 -0.0192941 0
0.189183 -0.166976 0
-0.068869 -0.265686 0
-0.233315 -0.28374 0
-0.160364 -0.267809 0
0.0603095 -0.176756 0
0.251317 -0.0577021 0
-0.686943 -0.304461 0
-0.438353 -0.890058 0
1.08592 0.944452 0
-0.0807991 0.144631 0
0.621063 0.28625 0
-1.49747 -0.099927 0
-1.84291 0.365197 0
0.425266 -0.535595 0
0.780395 -0.683779 0
0.533835 0.105015 0
-1.32404 0.0907552 0
-0.355481 0.774913 0
-0.385099 -0.274986 0
0.737963 -0.244495 0
-0.131815 -1.7372 0
0.552259 -0.919886 0
0.170883 -1.30554 0
-0.0738362 -0.91606 0
-0.320456 -1.40811 0
-0.229574 -0.416419 0
-0.475736 -0.456522 0
1.25373 -0.621696 0
-0.569316 -1.23046 0
0.0854441 0.0276086 0
-0.283567 -1.25566 0
0.182667 -0.19096 0
-0.837433 -1.22949 0
-0.0836399 -0.507891 0
-0.175597 -1.00054 0
-0.799104 -0.588531 0
0.58555 -0.897162 0
0.505161 -1.50969 0
0.365464 -0.666746 0
-0.0899096 -0.0840398 0
0.057254 -0.832466 0
0.908785 -1.29586 0
0.481852 0.121885 0
-0.743801 -0.373803 0
0.390091 0.183505 0
-0.972149 -0.909164 0
0.214256 -0.242093 0
0.427519 -0.631153 0
0.279176 0.367737 0
-0.235996 -1.53114 0
-1.12151 -0.656025 0
-0.188071 -0.284355 0
0.193041 -0.0596286 0
0.427979 -0.0649265 0
0.246247 0.877522 0
-0.931287 -0.623762 0
0.303403 0.270604 0
0.35913 -0.136729 0
0.433372 -0.370686 0
-0.0592315 -1.18041 0
1.23765 -1.00015 0
1.17762 -0.436587 0
-0.419068 0.206581 0
-0.0898555 -1.81964 0
-0.197684 0.4162 0
0.370974 0.0429309 0
-0.321399 0.125313 0
-0.324244 -0.288701 0
-0.393833 -1.0141 0
0.165748 -0.791165 0
-0.338761 -0.526271 0
-0.26221 -0.526998 0
0.358057 0.0641741 0
1.24387 -0.33712 0
-1.79372 -0.917014 0
0.0261089 -0.159857 0
-0.628606 -0.166572 0
0.471766 -0.0932178 0
-0.33606 -0.0875977 0
0.286429 -0.221418 0
-0.340865 -0.378999 0
0.139685 -0.582919 0
0.0191994 -0.223872 0
0.102967 -0.175352 0
0.0525282 -0.461051 0
-0.0571795 0.0491445 0
-0.0627745 -0.0866267 0
0.274164 -0.180307 0
-0.278665 -0.161144 0
-0.132744 -0.604919 0
0.133914 -0.067764 0
-0.178818 -0.298872 0
0.318182 -0.487413 0
0.285755 -0.260736 0
-0.144264 -0.173457 0
-0.188802 -0.287364 0
0.131619 -0.33573 0
0.191724 -0.147204 0
-0.0334009 -0.156204 0
-0.0138154 -0.29755 0
0.119862 -0.190626 0
0.0916434 -0.0948623 0
-0.0216586 -0.217593 0
-0.073749 -0.359928 0
0.0113369 -0.310158 0
0.156556 -0.201319 0
0.872186 -1.02993 0
0.47447 0.258619 0
1.00267 0.260793 0
-0.371757 0.379409 0
-0.443849 0.318537 0
0.339285 -0.846905 0
1.21734 -0.0655446 0
0.802543 -0.537264 0
-1.13778 -0.401677 0
-0.473186 0.0204224 0
-0.981415 -0.730314 0
0.207491 -0.78033 0
-0.432663 -0.6046 0
-0.230233 -0.371634 0
0.235765 -0.714926 0
0.59423 -1.75232 0
-1.01767 -0.253105 0
-0.331609 -1.34371 0
-0.505318 -0.587852 0
0.551568 0.234139 0
0.14362 -1.05525 0
-0.249164 -0.736282 0
0.200025 -2.27319 0
-1.30255 -0.685252 0
0.868198 -1.84929 0
0.122703 -1.554 0
0.418364 -1.77584 0
1.75805 -0.0256246 0
-0.263225 -1.07555 0
-0.572376 -1.79795 0
-0.333627 -0.416189 0
0.341333 -0.645664 0
-0.648061 -0.664596 0
-0.0343543 -1.14768 0
0.0550831 -1.2837 0
0.578669 -0.984087 0
0.324942 -1.43277 0
-0.532749 -1.27928 0
0.244716 0.218714 0
1.11787 -1.08621 0
-0.031951 -0.97746 0
0.260856 0.209949 0
0.340722 0.496018 0
0.147057 -0.425394 0
-0.458832 -0.408716 0
0.400473 -0.0127819 0
-0.261623 0.273624 0
-0.605246 -0.5614 0
0.519048 0.00223123 0
0.459837 0.855578 0
-0.913389 -0.872945 0
-1.18714 -0.373463 0
-0.452841 -0.00898292 0
0.168267 -0.531412 0
0.0179921 0.732758 0
-1.27659 -0.654101 0
-0.324894 -0.754946 0
-0.0638221 -0.947784 0
0.72315 0.0653608 0
-0.898032 0.223927 0
0.23766 -0.877326 0
0.592291 1.1852 0
-0.832349 -0.114624 0
-0.480667 -0.094308 0
0.0314328 -0.189512 0
0.385198 -0.635889 0
-0.0385379 -0.478267 0
-0.462412 -0.471189 0
0.214039 0.0309698 0
-0.486396 0.907399 0
-0.12005 -1.00209 0
0.0621876 0.316884 0
0.0964978 -0.421914 0
-0.360556 -0.217113 0
0.17971 0.182872 0
0.425974 -1.17699 0
0.230515 -0.814129 0
-0.479023 0.673849 0
-0.161136 0.0427795 0
0.0889077 -0.850229 0
0.0932919 -0.262505 0
0.0202481 0.14524 0
0.373042 -0.213922 0
-0.26207 -0.440411 0
-0.610772 -0.435119 0
0.292093 -0.28901 0
0.509873 -0.0635387 0
0.0967632 -0.176508 0
-0.197689 -0.519461 0
-0.0745952 -0.569331 0
0.12596 0.0231045 0
0.13789 0.0594738 0
-0.0188096 -0.25927 0
-0.137827 -0.493714 0
0.0658708 -0.314848 0
0.225208 -0.0339437 0
0.126042 -0.111666 0
-0.00286053 -0.342163 0
-0.00947002 -0.415421 0
0.0714251 -0.277822 0
0.15947 0.445755 0
-0.344542 -0.112746 0
0.455609 0.344104 0
0.390888 -0.598151 0
0.335054 -0.0103876 0
0.472558 -0.478279 0
-0.538004 -0.39864 0
0.528967 0.429142 0
-0.566581 -0.949038 0
0.310816 -0.452567 0
-0.0476215 -0.59945 0
-0.470563 -0.971478 0
-0.165307 -0.358679 0
-0.182145 -0.927633 0
0.980131 -1.02652 0
0.114552 -0.683803 0
-0.579234 -0.840307 0
-0.195558 -1.43016 0
-0.557879 -1.45765 0
-0.376936 -1.1445 0
0.260328 -1.01892 0
-0.527838 -0.724874 0
-0.651018 -0.706022 0
-0.150802 -0.417929 0
-0.441454 -0.245379 0
0.667248 -0.923023 0
0.503723 -1.15413 0
0.640909 -1.23746 0
-0.203175 -0.461865 0
-0.646486 -1.04456 0
-0.638336 -0.969968 0
-0.376367 -0.596708 0
0.0270077 -2.08519 0
0.378069 -0.615665 0
-0.678092 -0.58637 0
-0.749613 -0.760456 0
0.212994 -0.100355 0
-0.696529 -0.400805 0
-0.229942 -0.542833 0
-0.744256 0.832635 0
-0.323564 -0.938112 0
-0.697677 0.391549 0
-0.780331 -1.01905 0
0.475722 0.310033 0
-0.826834 -0.991958 0
-0.451688 -1.14078 0
0.488433 0.0739322 0
0.179875 -0.0382955 0
-0.00732985 -0.276183 0
-0.140508 0.72985 0
-0.25995 -1.58872 0
0.198459 -0.405177 0
-0.282721 0.48647 0
0.593053 -0.0387129 0
0.268845 0.530036 0
0.0636264 -0.0859859 0
-0.225455 -1.07417 0
-0.468898 -1.43592 0
0.112502 -0.511793 0
0.733618 -1.15674 0
0.053793 0.409274 0
-0.66666 -0.525265 0
0.62826 -0.404167 0
-0.396841 -0.825065 0
0.175908 -0.090434 0
0.184285 0.231155 0
0.416959 -0.189175 0
1.10042 -0.187164 0
0.0484091 -0.861995 0
-0.0750329 0.0939263 0
-0.359447 0.440119 0
0.250161 -2.17774 0
-0.298542 0.808516 0
-0.314357 0.744006 0
0.341441 -0.994137 0
0.119959 -1.02702 0
-0.143463 -0.21333 0
0.1453 0.455959 0
-0.116332 -0.0620245 0
-0.259255 -0.985302 0
0.0293898 -0.522738 0
0.230808 0.549349 0
-0.0221601 0.175649 0
-0.311444 -0.960478 0
-0.0918971 -0.679138 0
0.210889 0.122002 0
0.283054 0.137717 0
0.209378 -0.372915 0
-0.127452 -0.587539 0
-0.248843 -0.454008 0
0.0919366 0.0300313 0
0.310224 0.16386 0
0.0554088 -0.184928 0
-0.232589 -0.676129 0
-0.0290187 -0.434857 0
0.263255 0.0302878 0
0.221344 0.026637 0
0.0230066 -0.234825 0
-0.0464952 -0.300969 0
0.0214624 -0.0670656 0
-0.24582 0.0659287 0
-0.181078 -0.154684 0
-0.579909 -1.11182 0
0.0195475 -0.818025 0
0.340325 -1.06337 0
0.978633 0.503986 0
-0.873612 0.681707 0
1.20799 -1.50495 0
-0.990777 0.299836 0
-0.0764771 0.00808413 0
0.082404 0.708544 0
-0.62766 -0.114974 0
1.78022 -0.147601 0
0.205197 -0.0527665 0
0.646268 -0.642925 0
-0.354134 0.387339 0
-0.380973 -0.224761 0
-0.550598 -0.286883 0
-0.173302 -0.362163 0
-0.414565 -1.3636 0
0.497139 -0.296193 0
-1.28186 -1.03555 0
0.0492543 -1.35506 0
-0.947421 -1.97412 0
0.7582 -0.278141 0
0.792711 -0.989823 0
-0.235733 -0.849071 0
-0.441355 -1.66642 0
-0.0832171 -1.29702 0
-0.0939047 -0.741764 0
0.0660974 -1.23541 0
-0.579216 -0.295234 0
0.916333 -1.4742 0
0.796869 -1.23184 0
0.107346 -0.431145 0
-0.647344 -0.692441 0
0.799497 -0.434023 0
-0.26913 -0.143453 0
0.120117 -0.197139 0
0.146573 -0.619055 0
0.397717 -0.00562134 0
-0.903958 -1.15474 0
0.154952 -0.873952 0
-1.12137 0.0941468 0
0.970867 -0.0484505 0
-1.10776 -0.928124 0
0.402182 -0.180413 0
0.755399 -0.32402 0
-0.0901046 -1.02173 0
0.293729 -0.0490702 0
0.319017 -0.487354 0
0.153599 -1.15927 0
0.267953 -0.060701 0
0.747252 0.561727 0
0.514057 -1.07485 0
-1.06331 0.100576 0
0.185773 -0.795512 0
-0.310961 -0.830754 0
0.217128 -0.521499 0
1.16234 -0.648424 0
-0.359611 0.67944 0
0.115155 -0.796626 0
0.295139 -0.234986 0
-0.0146652 -0.993123 0
-0.344589 -0.405021 0
-0.635706 -0.47453 0
0.147511 -0.966171 0
0.715973 0.195559 0
-0.499733 -0.896521 0
0.0429749 0.817942 0
-0.0369735 0.111648 0
-0.0789451 -0.565932 0
0.478166 -0.542988 0
0.0996333 0.113344 0
0.603286 0.0148841 0
-0.08372 -1.37751 0
-0.358889 -0.0581878 0
0.236446 0.696342 0
0.216887 -0.248582 0
-0.338256 -0.955475 0
-0.414141 0.146122 0
0.129215 0.326489 0
0.210602 -0.291033 0
-0.157886 -0.769177 0
-0.0864847 -0.577638 0
0.162615 0.143612 0
0.209916 0.129081 0
0.151033 -0.408405 0
-0.0590517 -0.727627 0
-0.23826 -0.336601 0
0.0104397 0.18534 0
0.354407 0.112322 0
0.209461 -0.365277 0
-0.204173 -0.674248 0
-0.161965 -0.322418 0
0.197501 0.015457 0
0.258401 0.0194092 0
0.0242592 -0.126804 0
-0.0894047 -0.130775 0
0.0185678 0.0927704 0
0.38225 -0.738724 0
-0.470748 -0.100474 0
-0.0200651 -0.859779 0
-0.211788 0.373933 0
-0.521138 0.0127561 0
-0.147002 -0.338344 0
0.27354 -0.572051 0
-0.306896 -0.45355 0
1.04858 -0.0543898 0
-0.863189 -0.404377 0
0.597471 -1.00457 0
0.752499 0.493138 0
-0.100767 0.124798 0
-0.364645 -0.151507 0
0.294201 -0.254071 0
-0.217564 -0.508656 0
-0.260495 -0.163877 0
0.218881 -0.919518 0
0.549453 -1.25329 0
-0.21936 -0.633772 0
-0.0192633 -1.06129 0
0.240137 0.0884409 0
0.0736201 -0.762268 0
0.16132 0.322472 0
1.12164 -0.626523 0
-0.581071 -2.18204 0
-0.16318 -0.91077 0
-0.112299 -0.412226 0
-0.585758 -0.974794 0
-0.226973 -0.133571 0
-0.283722 -0.20079 0
0.532788 -0.872339 0
-0.947277 -0.315833 0
-0.00450381 -1.01783 0
1.03191 -0.269836 0
1.45719 -0.631104 0
-0.675359 -0.514476 0
0.434538 -0.938082 0
-0.213775 -0.94092 0
0.468025 -0.0954708 0
-0.324875 -1.02213 0
0.0921535 -1.13461 0
0.136122 -0.641648 0
-0.55447 0.282294 0
0.191804 -0.391106 0
-0.467085 -0.883782 0
0.511701 -2.06471 0
-0.285358 0.083707 0
-0.0596234 0.11911 0
-0.432584 -0.703581 0
0.236838 -0.360364 0
-1.01219 -0.301751 0
0.190492 -0.0762592 0