<?xml version='1.0' encoding='UTF-8'?>
<VTKFile byte_order='LittleEndian' version='0.1' type = 'UnstructuredGrid'>
<UnstructuredGrid>
<FieldData>
<DataArray type='Float64' Name='Time' NumberOfComponents='1' NumberOfTuples='1' format='ascii'>
0.32
</DataArray>
</FieldData>
<Piece NumberOfCells='808' NumberOfPoints='808'>
<Points>
<DataArray NumberOfComponents='3' type='Float64' Name='position' format='ascii'>
0 0 0
0 0.025 0
0 0.05 0
0 0.075 0
0 0.1 0
0 0.125 0
0 0.15 0
0 0.175 0
0.025 0 0
0.05 0 0
0.075 0 0
0.1 0 0
0.125 0 0
0.15 0 0
0.175 0 0
0.2 0 0
0.225 0 0
0.25 0 0
0.275 0 0
0.3 0 0
0.325 0 0
0.35 0 0
0.375562 -0.00451941 0
0.400535 -0.00657442 0
0.425466 -0.0078863 0
0.450386 -0.00874684 0
0.475304 -0.00934532 0
0.500212 -0.00975388 0
0.525127 -0.00998913 0
0.550067 -0.0100961 0
0.575031 -0.0101337 0
0.600013 -0.0101435 0
0.625005 -0.0101449 0
0.650002 -0.0101447 0
0.675001 -0.0101444 0
0.7 -0.0101443 0
0.725 -0.0101442 0
0.75 -0.0101442 0
0.775 -0.0101442 0
0.8 -0.0101442 0
0.825 -0.0101442 0
0.85 -0.0101442 0
0.875 -0.0101442 0
0.9 -0.0101442 0
0.925 -0.0101442 0
0.95 -0.0101442 0
0.975 -0.0101442 0
1 -0.0101442 0
1.025 -0.0101442 0
1.05 -0.0101442 0
1.075 -0.0101442 0
1.1 -0.0101442 0
1.125 -0.0101442 0
1.15 -0.0101442 0
1.175 -0.0101442 0
1.2 -0.0101442 0
1.225 -0.0101442 0
1.25 -0.0101442 0
1.275 -0.0101442 0
1.3 -0.0101442 0
1.325 -0.0101442 0
1.35 -0.0101442 0
1.375 -0.0101442 0
1.4 -0.0101442 0
1.425 -0.0101442 0
1.45 -0.0101442 0
1.475 -0.0101442 0
1.5 -0.0101442 0
1.525 -0.0101442 0
1.55 -0.0101442 0
1.575 -0.0101442 0
1.6 -0.0101442 0
1.625 -0.0101442 0
1.65 -0.0101442 0
1.675 -0.0101442 0
1.7 -0.0101442 0
1.725 -0.0101442 0
1.75 -0.0101442 0
1.775 -0.0101442 0
1.8 -0.0101442 0
1.825 -0.0101442 0
1.85 -0.0101442 0
1.875 -0.0101442 0
1.9 -0.0101442 0
1.925 -0.0101442 0
1.95 -0.0101442 0
1.975 -0.0101442 0
2 -0.0101442 0
2.025 -0.0101442 0
2.05 -0.0101442 0
2.075 -0.0101442 0
2.1 -0.0101442 0
2.125 -0.0101442 0
2.15 -0.0101442 0
2.175 -0.0101442 0
2.2 -0.0101442 0
2.225 -0.0101442 0
2.25 -0.0101442 0
2.275 -0.0101442 0
2.3 -0.0101442 0
2.325 -0.0101442 0
2.35 -0.0101442 0
2.375 -0.0101442 0
2.4 -0.0101442 0
2.425 -0.0101442 0
2.45 -0.0101442 0
2.475 -0.0101442 0
2.5 -0.0101442 0
0.0248762 0.0244642 0
0.0498339 0.0241517 0
0.0748222 0.0238805 0
0.0998293 0.0236551 0
0.12484 0.023492 0
0.14986 0.0233351 0
0.174898 0.0231818 0
0.199944 0.0230614 0
0.224984 0.0229756 0
0.250017 0.0229013 0
0.275051 0.0228056 0
0.300103 0.0226341 0
0.325209 0.0222649 0
0.350436 0.0213963 0
0.375617 0.0196275 0
0.400576 0.0181123 0
0.425493 0.0169891 0
0.4504 0.0162014 0
0.47531 0.0156427 0
0.500219 0.0152582 0
0.525137 0.015029 0
0.550075 0.0149174 0
0.575036 0.0148736 0
0.600016 0.0148598 0
0.625006 0.0148564 0
0.650002 0.0148558 0
0.675001 0.0148557 0
0.7 0.0148558 0
0.725 0.0148558 0
0.75 0.0148558 0
0.775 0.0148558 0
0.8 0.0148558 0
0.825 0.0148558 0
0.85 0.0148558 0
0.875 0.0148558 0
0.9 0.0148558 0
0.925 0.0148558 0
0.95 0.0148558 0
0.975 0.0148558 0
1 0.0148558 0
1.025 0.0148558 0
1.05 0.0148558 0
1.075 0.0148558 0
1.1 0.0148558 0
1.125 0.0148558 0
1.15 0.0148558 0
1.175 0.0148558 0
1.2 0.0148558 0
1.225 0.0148558 0
1.25 0.0148558 0
1.275 0.0148558 0
1.3 0.0148558 0
1.325 0.0148558 0
1.35 0.0148558 0
1.375 0.0148558 0
1.4 0.0148558 0
1.425 0.0148558 0
1.45 0.0148558 0
1.475 0.0148558 0
1.5 0.0148558 0
1.525 0.0148558 0
1.55 0.0148558 0
1.575 0.0148558 0
1.6 0.0148558 0
1.625 0.0148558 0
1.65 0.0148558 0
1.675 0.0148558 0
1.7 0.0148558 0
1.725 0.0148558 0
1.75 0.0148558 0
1.775 0.0148558 0
1.8 0.0148558 0
1.825 0.0148558 0
1.85 0.0148558 0
1.875 0.0148558 0
1.9 0.0148558 0
1.925 0.0148558 0
1.95 0.0148558 0
1.975 0.0148558 0
2 0.0148558 0
2.025 0.0148558 0
2.05 0.0148558 0
2.075 0.0148558 0
2.1 0.0148558 0
2.125 0.0148558 0
2.15 0.0148558 0
2.175 0.0148558 0
2.2 0.0148558 0
2.225 0.0148558 0
2.25 0.0148558 0
2.275 0.0148558 0
2.3 0.0148558 0
2.325 0.0148558 0
2.35 0.0148558 0
2.375 0.0148558 0
2.4 0.0148558 0
2.425 0.0148558 0
2.45 0.0148558 0
2.475 0.0148558 0
2.5 0.0148558 0
0.0248319 0.0491814 0
0.0497646 0.0486612 0
0.0747422 0.0481842 0
0.0997439 0.0477969 0
0.124758 0.0475097 0
0.149797 0.0472297 0
0.174861 0.0469632 0
0.199933 0.0467605 0
0.224997 0.0466205 0
0.250052 0.0465016 0
0.27511 0.0463537 0
0.300194 0.0461096 0
0.325323 0.0456628 0
0.35049 0.0448849 0
0.375593 0.0437649 0
0.400573 0.0426591 0
0.425494 0.0417557 0
0.450402 0.0410804 0
0.475312 0.0405834 0
0.500222 0.040237 0
0.52514 0.0400271 0
0.550078 0.0399213 0
0.575039 0.0398771 0
0.600017 0.0398617 0
0.625007 0.0398572 0
0.650003 0.0398561 0
0.675001 0.0398558 0
0.7 0.0398558 0
0.725 0.0398558 0
0.75 0.0398558 0
0.775 0.0398558 0
0.8 0.0398558 0
0.825 0.0398558 0
0.85 0.0398558 0
0.875 0.0398558 0
0.9 0.0398558 0
0.925 0.0398558 0
0.95 0.0398558 0
0.975 0.0398558 0
1 0.0398558 0
1.025 0.0398558 0
1.05 0.0398558 0
1.075 0.0398558 0
1.1 0.0398558 0
1.125 0.0398558 0
1.15 0.0398558 0
1.175 0.0398558 0
1.2 0.0398558 0
1.225 0.0398558 0
1.25 0.0398558 0
1.275 0.0398558 0
1.3 0.0398558 0
1.325 0.0398558 0
1.35 0.0398558 0
1.375 0.0398558 0
1.4 0.0398558 0
1.425 0.0398558 0
1.45 0.0398558 0
1.475 0.0398558 0
1.5 0.0398558 0
1.525 0.0398558 0
1.55 0.0398558 0
1.575 0.0398558 0
1.6 0.0398558 0
1.625 0.0398558 0
1.65 0.0398558 0
1.675 0.0398558 0
1.7 0.0398558 0
1.725 0.0398558 0
1.75 0.0398558 0
1.775 0.0398558 0
1.8 0.0398558 0
1.825 0.0398558 0
1.85 0.0398558 0
1.875 0.0398558 0
1.9 0.0398558 0
1.925 0.0398558 0
1.95 0.0398558 0
1.975 0.0398558 0
2 0.0398558 0
2.025 0.0398558 0
2.05 0.0398558 0
2.075 0.0398558 0
2.1 0.0398558 0
2.125 0.0398558 0
2.15 0.0398558 0
2.175 0.0398558 0
2.2 0.0398558 0
2.225 0.0398558 0
2.25 0.0398558 0
2.275 0.0398558 0
2.3 0.0398558 0
2.325 0.0398558 0
2.35 0.0398558 0
2.375 0.0398558 0
2.4 0.0398558 0
2.425 0.0398558 0
2.45 0.0398558 0
2.475 0.0398558 0
2.5 0.0398558 0
0.0248204 0.0739355 0
0.0497443 0.0732083 0
0.0747084 0.0725447 0
0.0996994 0.0720138 0
0.12472 0.0715984 0
0.149778 0.0711923 0
0.174861 0.0708213 0
0.199947 0.0705502 0
0.225022 0.0703698 0
0.250088 0.0702215 0
0.275156 0.0700448 0
0.300243 0.0697813 0
0.325354 0.0693626 0
0.350467 0.0687406 0
0.375531 0.0679571 0
0.40052 0.0671582 0
0.42546 0.0664647 0
0.450382 0.0659102 0
0.475298 0.0654865 0
0.500212 0.0651898 0
0.525134 0.0650098 0
0.550075 0.0649175 0
0.575037 0.0648775 0
0.600016 0.0648626 0
0.625007 0.0648577 0
0.650002 0.0648563 0
0.675001 0.0648559 0
0.7 0.0648558 0
0.725 0.0648558 0
0.75 0.0648558 0
0.775 0.0648558 0
0.8 0.0648558 0
0.825 0.0648558 0
0.85 0.0648558 0
0.875 0.0648558 0
0.9 0.0648558 0
0.925 0.0648558 0
0.95 0.0648558 0
0.975 0.0648558 0
1 0.0648558 0
1.025 0.0648558 0
1.05 0.0648558 0
1.075 0.0648558 0
1.1 0.0648558 0
1.125 0.0648558 0
1.15 0.0648558 0
1.175 0.0648558 0
1.2 0.0648558 0
1.225 0.0648558 0
1.25 0.0648558 0
1.275 0.0648558 0
1.3 0.0648558 0
1.325 0.0648558 0
1.35 0.0648558 0
1.375 0.0648558 0
1.4 0.0648558 0
1.425 0.0648558 0
1.45 0.0648558 0
1.475 0.0648558 0
1.5 0.0648558 0
1.525 0.0648558 0
1.55 0.0648558 0
1.575 0.0648558 0
1.6 0.0648558 0
1.625 0.0648558 0
1.65 0.0648558 0
1.675 0.0648558 0
1.7 0.0648558 0
1.725 0.0648558 0
1.75 0.0648558 0
1.775 0.0648558 0
1.8 0.0648558 0
1.825 0.0648558 0
1.85 0.0648558 0
1.875 0.0648558 0
1.9 0.0648558 0
1.925 0.0648558 0
1.95 0.0648558 0
1.975 0.0648558 0
2 0.0648558 0
2.025 0.0648558 0
2.05 0.0648558 0
2.075 0.0648558 0
2.1 0.0648558 0
2.125 0.0648558 0
2.15 0.0648558 0
2.175 0.0648558 0
2.2 0.0648558 0
2.225 0.0648558 0
2.25 0.0648558 0
2.275 0.0648558 0
2.3 0.0648558 0
2.325 0.0648558 0
2.35 0.0648558 0
2.375 0.0648558 0
2.4 0.0648558 0
2.425 0.0648558 0
2.45 0.0648558 0
2.475 0.0648558 0
2.5 0.0648558 0
0.0248304 0.0987181 0
0.049749 0.0978236 0
0.0747015 0.097021 0
0.0996889 0.0963633 0
0.124721 0.0958154 0
0.149795 0.0952865 0
0.174885 0.0948265 0
0.199972 0.0945048 0
0.225046 0.0943001 0
0.250112 0.0941392 0
0.275179 0.0939552 0
0.300254 0.0937005 0
0.325337 0.0933393 0
0.350412 0.0928561 0
0.375453 0.092284 0
0.400447 0.0916975 0
0.425406 0.0911643 0
0.450343 0.0907169 0
0.475267 0.0903697 0
0.500187 0.090129 0
0.525116 0.089984 0
0.550064 0.0899091 0
0.575032 0.0898756 0
0.600014 0.0898625 0
0.625006 0.0898579 0
0.650002 0.0898564 0
0.675001 0.089856 0
0.7 0.0898558 0
0.725 0.0898558 0
0.75 0.0898558 0
0.775 0.0898558 0
0.8 0.0898558 0
0.825 0.0898558 0
0.85 0.0898558 0
0.875 0.0898558 0
0.9 0.0898558 0
0.925 0.0898558 0
0.95 0.0898558 0
0.975 0.0898558 0
1 0.0898558 0
1.025 0.0898558 0
1.05 0.0898558 0
1.075 0.0898558 0
1.1 0.0898558 0
1.125 0.0898558 0
1.15 0.0898558 0
1.175 0.0898558 0
1.2 0.0898558 0
1.225 0.0898558 0
1.25 0.0898558 0
1.275 0.0898558 0
1.3 0.0898558 0
1.325 0.0898558 0
1.35 0.0898558 0
1.375 0.0898558 0
1.4 0.0898558 0
1.425 0.0898558 0
1.45 0.0898558 0
1.475 0.0898558 0
1.5 0.0898558 0
1.525 0.0898558 0
1.55 0.0898558 0
1.575 0.0898558 0
1.6 0.0898558 0
1.625 0.0898558 0
1.65 0.0898558 0
1.675 0.0898558 0
1.7 0.0898558 0
1.725 0.0898558 0
1.75 0.0898558 0
1.775 0.0898558 0
1.8 0.0898558 0
1.825 0.0898558 0
1.85 0.0898558 0
1.875 0.0898558 0
1.9 0.0898558 0
1.925 0.0898558 0
1.95 0.0898558 0
1.975 0.0898558 0
2 0.0898558 0
2.025 0.0898558 0
2.05 0.0898558 0
2.075 0.0898558 0
2.1 0.0898558 0
2.125 0.0898558 0
2.15 0.0898558 0
2.175 0.0898558 0
2.2 0.0898558 0
2.225 0.0898558 0
2.25 0.0898558 0
2.275 0.0898558 0
2.3 0.0898558 0
2.325 0.0898558 0
2.35 0.0898558 0
2.375 0.0898558 0
2.4 0.0898558 0
2.425 0.0898558 0
2.45 0.0898558 0
2.475 0.0898558 0
2.5 0.0898558 0
0.0248407 0.123578 0
0.0497592 0.122569 0
0.0747158 0.121663 0
0.0997118 0.120893 0
0.124754 0.120218 0
0.149833 0.119578 0
0.17492 0.119049 0
0.199996 0.118696 0
0.225059 0.118482 0
0.250118 0.118323 0
0.275178 0.118147 0
0.30024 0.117912 0
0.325302 0.1176 0
0.350353 0.117209 0
0.375379 0.116765 0
0.400375 0.11631 0
0.425341 0.115887 0
0.450287 0.115529 0
0.475219 0.115254 0
0.50015 0.115068 0
0.525091 0.114957 0
0.55005 0.114899 0
0.575024 0.114872 0
0.600011 0.114862 0
0.625004 0.114858 0
0.650002 0.114856 0
0.675001 0.114856 0
0.7 0.114856 0
0.725 0.114856 0
0.75 0.114856 0
0.775 0.114856 0
0.8 0.114856 0
0.825 0.114856 0
0.85 0.114856 0
0.875 0.114856 0
0.9 0.114856 0
0.925 0.114856 0
0.95 0.114856 0
0.975 0.114856 0
1 0.114856 0
1.025 0.114856 0
1.05 0.114856 0
1.075 0.114856 0
1.1 0.114856 0
1.125 0.114856 0
1.15 0.114856 0
1.175 0.114856 0
1.2 0.114856 0
1.225 0.114856 0
1.25 0.114856 0
1.275 0.114856 0
1.3 0.114856 0
1.325 0.114856 0
1.35 0.114856 0
1.375 0.114856 0
1.4 0.114856 0
1.425 0.114856 0
1.45 0.114856 0
1.475 0.114856 0
1.5 0.114856 0
1.525 0.114856 0
1.55 0.114856 0
1.575 0.114856 0
1.6 0.114856 0
1.625 0.114856 0
1.65 0.114856 0
1.675 0.114856 0
1.7 0.114856 0
1.725 0.114856 0
1.75 0.114856 0
1.775 0.114856 0
1.8 0.114856 0
1.825 0.114856 0
1.85 0.114856 0
1.875 0.114856 0
1.9 0.114856 0
1.925 0.114856 0
1.95 0.114856 0
1.975 0.114856 0
2 0.114856 0
2.025 0.114856 0
2.05 0.114856 0
2.075 0.114856 0
2.1 0.114856 0
2.125 0.114856 0
2.15 0.114856 0
2.175 0.114856 0
2.2 0.114856 0
2.225 0.114856 0
2.25 0.114856 0
2.275 0.114856 0
2.3 0.114856 0
2.325 0.114856 0
2.35 0.114856 0
2.375 0.114856 0
2.4 0.114856 0
2.425 0.114856 0
2.45 0.114856 0
2.475 0.114856 0
2.5 0.114856 0
0.0248453 0.148501 0
0.0497751 0.147404 0
0.0747493 0.146408 0
0.0997577 0.145554 0
0.124802 0.144775 0
0.149878 0.144046 0
0.174954 0.14347 0
0.200014 0.143104 0
0.225062 0.142893 0
0.250108 0.142744 0
0.275159 0.142584 0
0.300211 0.142373 0
0.32526 0.142097 0
0.350297 0.141762 0
0.375314 0.14139 0
0.400306 0.141013 0
0.425274 0.140666 0
0.450224 0.140377 0
0.475166 0.140161 0
0.50011 0.140018 0
0.525066 0.139933 0
0.550035 0.13989 0
0.575017 0.139869 0
0.600007 0.139861 0
0.625003 0.139858 0
0.650001 0.139856 0
0.675 0.139856 0
0.7 0.139856 0
0.725 0.139856 0
0.75 0.139856 0
0.775 0.139856 0
0.8 0.139856 0
0.825 0.139856 0
0.85 0.139856 0
0.875 0.139856 0
0.9 0.139856 0
0.925 0.139856 0
0.95 0.139856 0
0.975 0.139856 0
1 0.139856 0
1.025 0.139856 0
1.05 0.139856 0
1.075 0.139856 0
1.1 0.139856 0
1.125 0.139856 0
1.15 0.139856 0
1.175 0.139856 0
1.2 0.139856 0
1.225 0.139856 0
1.25 0.139856 0
1.275 0.139856 0
1.3 0.139856 0
1.325 0.139856 0
1.35 0.139856 0
1.375 0.139856 0
1.4 0.139856 0
1.425 0.139856 0
1.45 0.139856 0
1.475 0.139856 0
1.5 0.139856 0
1.525 0.139856 0
1.55 0.139856 0
1.575 0.139856 0
1.6 0.139856 0
1.625 0.139856 0
1.65 0.139856 0
1.675 0.139856 0
1.7 0.139856 0
1.725 0.139856 0
1.75 0.139856 0
1.775 0.139856 0
1.8 0.139856 0
1.825 0.139856 0
1.85 0.139856 0
1.875 0.139856 0
1.9 0.139856 0
1.925 0.139856 0
1.95 0.139856 0
1.975 0.139856 0
2 0.139856 0
2.025 0.139856 0
2.05 0.139856 0
2.075 0.139856 0
2.1 0.139856 0
2.125 0.139856 0
2.15 0.139856 0
2.175 0.139856 0
2.2 0.139856 0
2.225 0.139856 0
2.25 0.139856 0
2.275 0.139856 0
2.3 0.139856 0
2.325 0.139856 0
2.35 0.139856 0
2.375 0.139856 0
2.4 0.139856 0
2.425 0.139856 0
2.45 0.139856 0
2.475 0.139856 0
2.5 0.139856 0
0.0248446 0.173453 0
0.0497899 0.172298 0
0.0747844 0.171228 0
0.0997989 0.170332 0
0.124841 0.169488 0
0.149913 0.168695 0
0.17498 0.168095 0
0.200026 0.167733 0
0.225059 0.167534 0
0.250093 0.167397 0
0.275135 0.16725 0
0.300181 0.167056 0
0.325224 0.166804 0
0.350254 0.166501 0
0.375265 0.166168 0
0.400253 0.165835 0
0.425221 0.165534 0
0.450175 0.165287 0
0.475125 0.165107 0
0.50008 0.164989 0
0.525046 0.164921 0
0.550024 0.164885 0
0.575011 0.164868 0
0.600005 0.16486 0
0.625002 0.164857 0
0.650001 0.164856 0
0.675 0.164856 0
0.7 0.164856 0
0.725 0.164856 0
0.75 0.164856 0
0.775 0.164856 0
0.8 0.164856 0
0.825 0.164856 0
0.85 0.164856 0
0.875 0.164856 0
0.9 0.164856 0
0.925 0.164856 0
0.95 0.164856 0
0.975 0.164856 0
1 0.164856 0
1.025 0.164856 0
1.05 0.164856 0
1.075 0.164856 0
1.1 0.164856 0
1.125 0.164856 0
1.15 0.164856 0
1.175 0.164856 0
1.2 0.164856 0
1.225 0.164856 0
1.25 0.164856 0
1.275 0.164856 0
1.3 0.164856 0
1.325 0.164856 0
1.35 0.164856 0
1.375 0.164856 0
1.4 0.164856 0
1.425 0.164856 0
1.45 0.164856 0
1.475 0.164856 0
1.5 0.164856 0
1.525 0.164856 0
1.55 0.164856 0
1.575 0.164856 0
1.6 0.164856 0
1.625 0.164856 0
1.65 0.164856 0
1.675 0.164856 0
1.7 0.164856 0
1.725 0.164856 0
1.75 0.164856 0
1.775 0.164856 0
1.8 0.164856 0
1.825 0.164856 0
1.85 0.164856 0
1.875 0.164856 0
1.9 0.164856 0
1.925 0.164856 0
1.95 0.164856 0
1.975 0.164856 0
2 0.164856 0
2.025 0.164856 0
2.05 0.164856 0
2.075 0.164856 0
2.1 0.164856 0
2.125 0.164856 0
2.15 0.164856 0
2.175 0.164856 0
2.2 0.164856 0
2.225 0.164856 0
2.25 0.164856 0
2.275 0.164856 0
2.3 0.164856 0
2.325 0.164856 0
2.35 0.164856 0
2.375 0.164856 0
2.4 0.164856 0
2.425 0.164856 0
2.45 0.164856 0
2.475 0.164856 0
2.5 0.164856 0
</DataArray>
</Points>
<PointData>
<DataArray NumberOfComponents='1' type='Int32' Name='Particle Type' format='ascii'>
0
0
0
0
0
0
0
0
0
0
0
0
0
0
0
0
0
0
0
0
0
0
1
1
1
1
1
1
1
1
1
1
1
1
1
1
1
1
1
1
1
1
1
1
1
1
1
1
1
1
1
1
1
1
1
1
1
1
1
1
1
1
1
1
1
1
1
1
1
1
1
1
1
1
1
1
1
1
1
1
1
1
1
1
1
1
1
1
1
1
1
1
1
1
1
1
1
1
1
1
1
1
1
1
1
1
1
1
1
1
1
1
1
1
1
1
1
1
1
1
1
1
1
1
1
1
1
1
1
1
1
1
1
1
1
1
1
1
1
1
1
1
1
1
1
1
1
1
1
1
1
1
1
1
1
1
1
1
1
1
1
1
1
1
1
1
1
1
1
1
1
1
1
1
1
1
1
1
1
1
1
1
1
1
1
1
1
1
1
1
1
1
1
1
1
1
1
1
1
1
1
1
1
1
1
1
1
1
1
1
1
1
1
1
1
1
1
1
1
1
1
1
1
1
1
1
1
1
1
1
1
1
1
1
1
1
1
1
1
1
1
1
1
1
1
1
1
1
1
1
1
1
1
1
1
1
1
1
1
1
1
1
1
1
1
1
1
1
1
1
1
1
1
1
1
1
1
1
1
1
1
1
1
1
1
1
1
1
1
1
1
1
1
1
1
1
1
1
1
1
1
1
1
1
1
1
1
1
1
1
1
1
1
1
1
1
1
1
1
1
1
1
1
1
1
1
1
1
1
1
1
1
1
1
1
1
1
1
1
1
1
1
1
1
1
1
1
1
1
1
1
1
1
1
1
1
1
1
1
1
1
1
1
1
1
1
1
1
1
1
1
1
1
1
1
1
1
1
1
1
1
1
1
1
1
1
1
1
1
1
1
1
1
1
1
1
1
1
1
1
1
1
1
1
1
1
1
1
1
1
1
1
1
1
1
1
1
1
1
1
1
1
1
1
1
1
1
1
1
1
1
1
1
1
1
1
1
1
1
1
1
1
1
1
1
1
1
1
1
1
1
1
1
1
1
1
1
1
1
1
1
1
1
1
1
1
1
1
1
1
1
1
1
1
1
1
1
1
1
1
1
1
1
1
1
1
1
1
1
1
1
1
1
1
1
1
1
1
1
1
1
1
1
1
1
1
1
1
1
1
1
1
1
1
1
1
1
1
1
1
1
1
1
1
1
1
1
1
1
1
1
1
1
1
1
1
1
1
1
1
1
1
1
1
1
1
1
1
1
1
1
1
1
1
1
1
1
1
1
1
1
1
1
1
1
1
1
1
1
1
1
1
1
1
1
1
1
1
1
1
1
1
1
1
1
1
1
1
1
1
1
1
1
1
1
1
1
1
1
1
1
1
1
1
1
1
1
1
1
1
1
1
1
1
1
1
1
1
1
1
1
1
1
1
1
1
1
1
1
1
1
1
1
1
1
1
1
1
1
1
1
1
1
1
1
1
1
1
1
1
1
1
1
1
1
1
1
1
1
1
1
1
1
1
1
1
1
1
1
1
1
1
1
1
1
1
1
1
1
1
1
1
1
1
1
1
1
1
1
1
1
1
1
1
1
1
1
1
1
1
1
1
1
1
1
1
1
1
1
1
1
1
1
1
1
1
1
1
1
1
1
1
1
1
1
1
1
1
1
1
1
1
1
1
1
1
1
1
1
1
1
1
1
1
1
1
1
1
1
1
1
1
1
1
1
1
1
1
1
1
1
1
1
1
1
1
1
1
1
1
1
1
1
1
1
1
1
1
1
1
1
1
1
1
1
1
1
1
1
1
1
1
1
1
1
1
1
1
1
1
1
1
1
1
1
1
1
1
</DataArray>
<DataArray NumberOfComponents='3' type='Float64' Name='Velocity' format='ascii'>
0 0 0
0 0 0
0 0 0
0 0 0
0 0 0
0 0 0
0 0 0
0 0 0
0 0 0
0 0 0
0 0 0
0 0 0
0 0 0
0 0 0
0 0 0
0 0 0
0 0 0
0 0 0
0 0 0
0 0 0
0 0 0
0 0 0
0.0036533 -0.0216762 0
0.00395509 -0.032301 0
0.00395883 -0.0405398 0
0.00343835 -0.0467005 0
0.00341764 -0.0509834 0
0.0032923 -0.0553361 0
0.00260681 -0.0593752 0
0.00169147 -0.0620294 0
0.000932611 -0.0632804 0
0.000451079 -0.0637103 0
0.00019566 -0.06381 0
7.72379e-05 -0.0638168 0
2.80338e-05 -0.063809 0
9.42855e-06 -0.0638036 0
2.95755e-06 -0.0638012 0
8.70138e-07 -0.0638004 0
2.41317e-07 -0.0638001 0
6.3367e-08 -0.0638 0
1.58172e-08 -0.0638 0
3.76611e-09 -0.0638 0
8.58022e-10 -0.0638 0
1.8754e-10 -0.0638 0
3.94366e-11 -0.0638 0
7.98827e-12 -0.0638 0
1.56224e-12 -0.0638 0
3.02837e-13 -0.0638 0
4.39967e-14 -0.0638 0
4.35671e-15 -0.0638 0
2.70419e-16 -0.0638 0
1.00019e-17 -0.0638 0
9.93914e-19 -0.0638 0
1.17728e-19 -0.0638 0
1.42474e-21 -0.0638 0
-2.21033e-30 -0.0638 0
2.54126e-30 -0.0638 0
-3.01313e-33 -0.0638 0
-2.54931e-30 -0.0638 0
2.20943e-30 -0.0638 0
-2.20465e-30 -0.0638 0
2.5395e-30 -0.0638 0
-6.4188e-33 -0.0638 0
-2.53503e-30 -0.0638 0
2.2035e-30 -0.0638 0
-2.21802e-30 -0.0638 0
2.54549e-30 -0.0638 0
-9.01109e-33 -0.0638 0
-2.54768e-30 -0.0638 0
2.21351e-30 -0.0638 0
-2.21425e-30 -0.0638 0
2.53978e-30 -0.0638 0
-1.8692e-33 -0.0638 0
-2.53503e-30 -0.0638 0
2.2035e-30 -0.0638 0
-2.21802e-30 -0.0638 0
2.54549e-30 -0.0638 0
-9.01109e-33 -0.0638 0
-2.54768e-30 -0.0638 0
2.21039e-30 -0.0638 0
-2.21033e-30 -0.0638 0
2.54126e-30 -0.0638 0
-3.01313e-33 -0.0638 0
-2.54931e-30 -0.0638 0
2.20943e-30 -0.0638 0
-2.20401e-30 -0.0638 0
2.57797e-30 -0.0638 0
2.82693e-31 -0.0638 0
-6.48244e-31 -0.0638 0
-5.12535e-30 -0.0638 0
5.12649e-30 -0.0638 0
6.83661e-31 -0.0638 0
-8.99687e-33 -0.0638 0
-6.83276e-31 -0.0638 0
-5.11075e-30 -0.0638 0
5.11094e-30 -0.0638 0
-1.42474e-21 -0.0638 0
-1.24245e-19 -0.0638 0
-9.2114e-19 -0.0638 0
-2.82658e-18 -0.0638 0
-1.45012e-18 -0.0638 0
2.63608e-18 -0.0638 0
3.41197e-18 -0.0638 0
1.72604e-18 -0.0638 0
-1.1307e-18 -0.0638 0
-3.14408e-18 -0.0638 0
-1.5413e-17 -0.0638 0
-8.3432e-17 -0.0638 0
-0.000310893 -0.000334526 0
-0.000543554 -0.00117933 0
-0.000861545 -0.000880853 0
-0.000804436 -0.00215998 0
-0.00070011 -0.00268188 0
-0.000998727 -0.00227853 0
-0.0012895 -0.00284662 0
-0.00116948 -0.00438025 0
-0.000739971 -0.0059202 0
-0.000238212 -0.00704135 0
0.000231352 -0.00802777 0
0.00068013 -0.00937804 0
0.0013891 -0.0114535 0
0.0029529 -0.0162386 0
0.00417006 -0.0260798 0
0.00423591 -0.0342585 0
0.00412026 -0.0413463 0
0.00368009 -0.0471313 0
0.00345009 -0.0514276 0
0.00320037 -0.0555089 0
0.00259331 -0.0592236 0
0.00176803 -0.0617784 0
0.00102608 -0.063089 0
0.000518487 -0.0636049 0
0.000232883 -0.0637624 0
9.45083e-05 -0.0637979 0
3.5087e-05 -0.0638023 0
1.20321e-05 -0.0638014 0
3.84053e-06 -0.0638006 0
1.14824e-06 -0.0638002 0
3.23283e-07 -0.0638001 0
8.61079e-08 -0.0638 0
2.17844e-08 -0.0638 0
5.25308e-09 -0.0638 0
1.2111e-09 -0.0638 0
2.67682e-10 -0.0638 0
5.68573e-11 -0.0638 0
1.16365e-11 -0.0638 0
2.2916e-12 -0.0638 0
4.52002e-13 -0.0638 0
7.40755e-14 -0.0638 0
7.41812e-15 -0.0638 0
4.54982e-16 -0.0638 0
1.58579e-17 -0.0638 0
1.8266e-18 -0.0638 0
2.41783e-19 -0.0638 0
4.38706e-21 -0.0638 0
-3.6648e-30 -0.0638 0
4.20966e-30 -0.0638 0
2.61324e-33 -0.0638 0
-4.20841e-30 -0.0638 0
3.66699e-30 -0.0638 0
-3.6782e-30 -0.0638 0
4.21169e-30 -0.0638 0
4.1845e-33 -0.0638 0
-4.21481e-30 -0.0638 0
3.67844e-30 -0.0638 0
-3.66968e-30 -0.0638 0
4.2053e-30 -0.0638 0
-6.21641e-33 -0.0638 0
-4.20723e-30 -0.0638 0
3.68211e-30 -0.0638 0
-3.67201e-30 -0.0638 0
4.19949e-30 -0.0638 0
8.36004e-33 -0.0638 0
-4.21453e-30 -0.0638 0
3.67844e-30 -0.0638 0
-3.66968e-30 -0.0638 0
4.2053e-30 -0.0638 0
-6.21641e-33 -0.0638 0
-4.20728e-30 -0.0638 0
3.68288e-30 -0.0638 0
-3.6648e-30 -0.0638 0
4.20966e-30 -0.0638 0
2.61324e-33 -0.0638 0
-4.20841e-30 -0.0638 0
3.66699e-30 -0.0638 0
-3.67738e-30 -0.0638 0
4.26021e-30 -0.0638 0
4.48639e-31 -0.0638 0
-1.046e-30 -0.0638 0
-8.44363e-30 -0.0638 0
8.45384e-30 -0.0638 0
1.06553e-30 -0.0638 0
1.04757e-32 -0.0638 0
-1.08327e-30 -0.0638 0
-8.44677e-30 -0.0638 0
8.44132e-30 -0.0638 0
-5.25429e-21 -0.0638 0
-3.15861e-19 -0.0638 0
-2.45792e-18 -0.0638 0
-8.56377e-18 -0.0638 0
-6.64977e-18 -0.0638 0
3.29622e-18 -0.0638 0
5.72648e-18 -0.0638 0
4.29402e-19 -0.0638 0
2.33803e-18 -0.0638 0
3.10796e-18 -0.0638 0
-1.26385e-17 -0.0638 0
-1.48016e-16 -0.0638 0
-0.000458433 -0.00122072 0
-0.000957045 -0.00168158 0
-0.00132471 -0.00125926 0
-0.00122498 -0.00357509 0
-0.00132947 -0.00423449 0
-0.00180984 -0.00361493 0
-0.00200279 -0.00481332 0
-0.00159107 -0.00756488 0
-0.000856554 -0.0102248 0
-9.30633e-05 -0.0121211 0
0.000664965 -0.0136752 0
0.00143901 -0.015764 0
0.00228012 -0.0188178 0
0.00343839 -0.0231982 0
0.00423781 -0.0298839 0
0.00444116 -0.0363688 0
0.00425683 -0.0428319 0
0.00378543 -0.0480217 0
0.00347543 -0.0520835 0
0.00318134 -0.0559441 0
0.00260353 -0.0593724 0
0.00181275 -0.0617457 0
0.00107494 -0.0630115 0
0.000552863 -0.0635471 0
0.000251624 -0.0637319 0
0.000103103 -0.0637848 0
3.85608e-05 -0.0637974 0
1.33053e-05 -0.0637998 0
4.27129e-06 -0.0638 0
1.28431e-06 -0.0638 0
3.63707e-07 -0.0638 0
9.74553e-08 -0.0638 0
2.48053e-08 -0.0638 0
6.01806e-09 -0.0638 0
1.3959e-09 -0.0638 0
3.10374e-10 -0.0638 0
6.62935e-11 -0.0638 0
1.3638e-11 -0.0638 0
2.70529e-12 -0.0638 0
5.33197e-13 -0.0638 0
9.1479e-14 -0.0638 0
9.35785e-15 -0.0638 0
5.80037e-16 -0.0638 0
1.209e-17 -0.0638 0
-8.62659e-20 -0.0638 0
-2.85838e-21 -0.0638 0
2.87826e-30 -0.0638 0
-2.87354e-30 -0.0638 0
3.30093e-30 -0.0638 0
1.59574e-33 -0.0638 0
-3.31271e-30 -0.0638 0
2.88823e-30 -0.0638 0
-2.88289e-30 -0.0638 0
3.31773e-30 -0.0638 0
2.05195e-33 -0.0638 0
-3.31471e-30 -0.0638 0
2.87415e-30 -0.0638 0
-2.87258e-30 -0.0638 0
3.30132e-30 -0.0638 0
-4.46116e-33 -0.0638 0
-3.30118e-30 -0.0638 0
2.88091e-30 -0.0638 0
-2.8851e-30 -0.0638 0
3.31597e-30 -0.0638 0
-4.53368e-34 -0.0638 0
-3.31483e-30 -0.0638 0
2.87415e-30 -0.0638 0
-2.87258e-30 -0.0638 0
3.30132e-30 -0.0638 0
-4.46116e-33 -0.0638 0
-3.30118e-30 -0.0638 0
2.87826e-30 -0.0638 0
-2.87354e-30 -0.0638 0
3.30093e-30 -0.0638 0
1.59574e-33 -0.0638 0
-3.31271e-30 -0.0638 0
2.88823e-30 -0.0638 0
-2.88293e-30 -0.0638 0
3.36004e-30 -0.0638 0
3.5668e-31 -0.0638 0
-8.30079e-31 -0.0638 0
-6.64677e-30 -0.0638 0
6.64254e-30 -0.0638 0
8.66579e-31 -0.0638 0
-2.29612e-33 -0.0638 0
-8.79708e-31 -0.0638 0
-6.64981e-30 -0.0638 0
6.65154e-30 -0.0638 0
-2.79177e-21 -0.0638 0
-1.58547e-19 -0.0638 0
-1.47476e-18 -0.0638 0
-6.22155e-18 -0.0638 0
-8.70609e-18 -0.0638 0
-1.99017e-18 -0.0638 0
1.14409e-18 -0.0638 0
-3.50792e-18 -0.0638 0
1.57103e-17 -0.0638 0
3.2117e-17 -0.0638 0
1.08445e-17 -0.0638 0
-1.79439e-16 -0.0638 0
-0.000715206 -0.00029024 0
-0.00118438 -0.000267414 0
-0.00134376 -0.000545465 0
-0.00152281 -0.00345826 0
-0.00207843 -0.0039089 0
-0.00257083 -0.00336235 0
-0.00238538 -0.0054491 0
-0.00156216 -0.00938779 0
-0.000579643 -0.0130298 0
0.000266603 -0.0156088 0
0.00105433 -0.0175766 0
0.00192798 -0.019899 0
0.00282158 -0.0233155 0
0.00364091 -0.0278341 0
0.00422006 -0.0333362 0
0.00437562 -0.0392189 0
0.00409072 -0.0447072 0
0.00370532 -0.0491115 0
0.00348464 -0.0529503 0
0.00318789 -0.0566386 0
0.00258087 -0.0597673 0
0.00178155 -0.0618829 0
0.0010518 -0.0630233 0
0.00054017 -0.0635271 0
0.000245865 -0.0637151 0
0.00010083 -0.0637761 0
3.77618e-05 -0.0637938 0
1.30536e-05 -0.0637985 0
4.20038e-06 -0.0637996 0
1.26665e-06 -0.0637999 0
3.59921e-07 -0.0638 0
9.68097e-08 -0.0638 0
2.47435e-08 -0.0638 0
6.02943e-09 -0.0638 0
1.40486e-09 -0.0638 0
3.13794e-10 -0.0638 0
6.73273e-11 -0.0638 0
1.39278e-11 -0.0638 0
2.77051e-12 -0.0638 0
5.48926e-13 -0.0638 0
9.46813e-14 -0.0638 0
9.76126e-15 -0.0638 0
6.07131e-16 -0.0638 0
6.89071e-18 -0.0638 0
-1.88455e-18 -0.0638 0
-2.4503e-19 -0.0638 0
-4.38706e-21 -0.0638 0
-2.58248e-30 -0.0638 0
2.93873e-30 -0.0638 0
-5.98221e-33 -0.0638 0
-2.94092e-30 -0.0638 0
2.58331e-30 -0.0638 0
-2.58922e-30 -0.0638 0
2.94506e-30 -0.0638 0
-5.24497e-33 -0.0638 0
-2.9436e-30 -0.0638 0
2.58706e-30 -0.0638 0
-2.58252e-30 -0.0638 0
2.93522e-30 -0.0638 0
4.87572e-34 -0.0638 0
-2.9357e-30 -0.0638 0
2.57691e-30 -0.0638 0
-2.58813e-30 -0.0638 0
2.95432e-30 -0.0638 0
-5.34936e-33 -0.0638 0
-2.94336e-30 -0.0638 0
2.58706e-30 -0.0638 0
-2.58252e-30 -0.0638 0
2.93522e-30 -0.0638 0
4.87572e-34 -0.0638 0
-2.9351e-30 -0.0638 0
2.57806e-30 -0.0638 0
-2.58248e-30 -0.0638 0
2.93873e-30 -0.0638 0
-5.98221e-33 -0.0638 0
-2.94092e-30 -0.0638 0
2.58331e-30 -0.0638 0
-2.58889e-30 -0.0638 0
2.98692e-30 -0.0638 0
2.83682e-31 -0.0638 0
-7.252e-31 -0.0638 0
-5.91577e-30 -0.0638 0
5.9309e-30 -0.0638 0
7.39335e-31 -0.0638 0
-1.28138e-32 -0.0638 0
-7.42425e-31 -0.0638 0
-5.90974e-30 -0.0638 0
5.91806e-30 -0.0638 0
4.38706e-21 -0.0638 0
2.34103e-19 -0.0638 0
1.36012e-18 -0.0638 0
2.37873e-18 -0.0638 0
-1.14827e-17 -0.0638 0
-2.07263e-17 -0.0638 0
-1.14581e-17 -0.0638 0
-9.76491e-19 -0.0638 0
2.26777e-17 -0.0638 0
3.50083e-17 -0.0638 0
3.22839e-17 -0.0638 0
-1.6961e-16 -0.0638 0
-0.000622962 -0.000569423 0
-0.000910075 -0.00120921 0
-0.00121461 -0.00192786 0
-0.00195766 -0.00438676 0
-0.00286657 -0.00442486 0
-0.00313068 -0.00437527 0
-0.00243713 -0.00757784 0
-0.00121245 -0.0125864 0
-4.66748e-05 -0.0169939 0
0.000795898 -0.0201306 0
0.00143067 -0.0224984 0
0.00209311 -0.0249077 0
0.00282174 -0.0280584 0
0.00345109 -0.0321387 0
0.00384606 -0.036854 0
0.00392727 -0.0417426 0
0.00378153 -0.0462281 0
0.00365047 -0.0502224 0
0.00351912 -0.0540169 0
0.00314132 -0.0575262 0
0.00244764 -0.0603093 0
0.00163674 -0.0621202 0
0.000945773 -0.0630936 0
0.000479421 -0.0635359 0
0.000216645 -0.0637104 0
8.85423e-05 -0.0637719 0
3.31269e-05 -0.0637917 0
1.14583e-05 -0.0637976 0
3.69341e-06 -0.0637994 0
1.11659e-06 -0.0637998 0
3.18282e-07 -0.0638 0
8.59186e-08 -0.0638 0
2.20463e-08 -0.0638 0
5.39462e-09 -0.0638 0
1.26234e-09 -0.0638 0
2.83174e-10 -0.0638 0
6.10615e-11 -0.0638 0
1.26658e-11 -0.0638 0
2.5375e-12 -0.0638 0
5.05224e-13 -0.0638 0
8.51791e-14 -0.0638 0
8.68643e-15 -0.0638 0
5.34645e-16 -0.0638 0
9.49475e-18 -0.0638 0
-7.61286e-19 -0.0638 0
-1.12648e-19 -0.0638 0
-1.36279e-21 -0.0638 0
-5.17158e-31 -0.0638 0
6.10348e-31 -0.0638 0
1.1239e-32 -0.0638 0
-6.03338e-31 -0.0638 0
5.25492e-31 -0.0638 0
-5.11668e-31 -0.0638 0
5.77104e-31 -0.0638 0
1.35489e-32 -0.0638 0
-5.86545e-31 -0.0638 0
5.16601e-31 -0.0638 0
-5.31573e-31 -0.0638 0
5.90142e-31 -0.0638 0
-6.8881e-33 -0.0638 0
-5.85166e-31 -0.0638 0
5.12557e-31 -0.0638 0
-5.1195e-31 -0.0638 0
5.99424e-31 -0.0638 0
1.14264e-32 -0.0638 0
-5.8658e-31 -0.0638 0
5.16601e-31 -0.0638 0
-5.31573e-31 -0.0638 0
5.90142e-31 -0.0638 0
-6.8881e-33 -0.0638 0
-5.84951e-31 -0.0638 0
5.2896e-31 -0.0638 0
-5.17158e-31 -0.0638 0
6.10348e-31 -0.0638 0
1.1239e-32 -0.0638 0
-6.03338e-31 -0.0638 0
5.25492e-31 -0.0638 0
-5.11839e-31 -0.0638 0
6.0241e-31 -0.0638 0
3.79876e-32 -0.0638 0
-1.98029e-31 -0.0638 0
-1.25164e-30 -0.0638 0
1.27098e-30 -0.0638 0
1.90495e-31 -0.0638 0
-6.58802e-33 -0.0638 0
-2.19288e-31 -0.0638 0
-1.25182e-30 -0.0638 0
1.26774e-30 -0.0638 0
4.15456e-21 -0.0638 0
2.68221e-19 -0.0638 0
2.00577e-18 -0.0638 0
5.80388e-18 -0.0638 0
-1.10864e-18 -0.0638 0
-2.184e-17 -0.0638 0
-1.23516e-17 -0.0638 0
3.55702e-17 -0.0638 0
3.39998e-17 -0.0638 0
2.24823e-17 -0.0638 0
1.55943e-17 -0.0638 0
-1.13609e-16 -0.0638 0
-0.000388807 -0.000672646 0
-0.000914337 -0.00128039 0
-0.00162464 -0.00150946 0
-0.00258048 -0.00278788 0
-0.00342463 -0.00238994 0
-0.00333487 -0.0031773 0
-0.00222184 -0.00761282 0
-0.000736773 -0.0135168 0
0.00052791 -0.0184378 0
0.00138433 -0.0219658 0
0.00193851 -0.0247541 0
0.00239377 -0.0274882 0
0.00286549 -0.0306397 0
0.00330078 -0.0343909 0
0.00360382 -0.0385949 0
0.00374919 -0.0429562 0
0.00378871 -0.0472204 0
0.00374431 -0.0513246 0
0.00349585 -0.0551747 0
0.00293729 -0.0584618 0
0.00215979 -0.0608801 0
0.00138219 -0.0623881 0
0.000775347 -0.063191 0
0.00038582 -0.0635624 0
0.000172498 -0.0637149 0
7.01185e-05 -0.0637716 0
2.61813e-05 -0.0637911 0
9.05767e-06 -0.0637973 0
2.92431e-06 -0.0637992 0
8.86328e-07 -0.0637998 0
2.53444e-07 -0.0637999 0
6.86602e-08 -0.0638 0
1.76855e-08 -0.0638 0
4.34483e-09 -0.0638 0
1.02083e-09 -0.0638 0
2.29967e-10 -0.0638 0
4.9757e-11 -0.0638 0
1.03633e-11 -0.0638 0
2.08345e-12 -0.0638 0
4.24246e-13 -0.0638 0
6.68896e-14 -0.0638 0
6.64361e-15 -0.0638 0
3.89502e-16 -0.0638 0
7.38995e-18 -0.0638 0
-7.50521e-20 -0.0638 0
-1.34648e-20 -0.0638 0
2.09104e-30 -0.0638 0
-2.10689e-30 -0.0638 0
2.4e-30 -0.0638 0
-6.66301e-33 -0.0638 0
-2.412e-30 -0.0638 0
2.10054e-30 -0.0638 0
-2.10279e-30 -0.0638 0
2.38501e-30 -0.0638 0
5.28388e-33 -0.0638 0
-2.35657e-30 -0.0638 0
2.11866e-30 -0.0638 0
-2.15619e-30 -0.0638 0
2.38824e-30 -0.0638 0
2.93835e-32 -0.0638 0
-2.36482e-30 -0.0638 0
2.06148e-30 -0.0638 0
-2.10021e-30 -0.0638 0
2.38764e-30 -0.0638 0
2.37258e-32 -0.0638 0
-2.35212e-30 -0.0638 0
2.11866e-30 -0.0638 0
-2.15619e-30 -0.0638 0
2.38824e-30 -0.0638 0
2.93835e-32 -0.0638 0
-2.36437e-30 -0.0638 0
2.09104e-30 -0.0638 0
-2.10689e-30 -0.0638 0
2.4e-30 -0.0638 0
-6.66301e-33 -0.0638 0
-2.412e-30 -0.0638 0
2.10054e-30 -0.0638 0
-2.10345e-30 -0.0638 0
2.44143e-30 -0.0638 0
2.28801e-31 -0.0638 0
-5.93553e-31 -0.0638 0
-4.87937e-30 -0.0638 0
4.88565e-30 -0.0638 0
6.27756e-31 -0.0638 0
-2.26861e-33 -0.0638 0
-6.52412e-31 -0.0638 0
-4.88377e-30 -0.0638 0
4.85126e-30 -0.0638 0
8.67233e-22 -0.0638 0
8.95724e-20 -0.0638 0
7.25595e-19 -0.0638 0
2.07778e-18 -0.0638 0
1.49809e-18 -0.0638 0
-1.25881e-17 -0.0638 0
1.95345e-17 -0.0638 0