<?xml version='1.0' encoding='UTF-8'?>
<VTKFile byte_order='LittleEndian' version='0.1' type = 'UnstructuredGrid'>
<UnstructuredGrid>
<FieldData>
<DataArray type='Float64' Name='Time' NumberOfComponents='1' NumberOfTuples='1' format='ascii'>
2.921
</DataArray>
</FieldData>
<Piece NumberOfCells='808' NumberOfPoints='808'>
<Points>
<DataArray NumberOfComponents='3' type='Float64' Name='position' format='ascii'>
0 0 0
0 0.025 0
0 0.05 0
0 0.075 0
0 0.1 0
0 0.125 0
0 0.15 0
0 0.175 0
0.025 0 0
0.05 0 0
0.075 0 0
0.1 0 0
0.125 0 0
0.15 0 0
0.175 0 0
0.200063 -0.000277102 0
0.225 0 0
0.249684 -0.000454222 0
0.272794 -0.00176678 0
0.298452 -0.00408936 0
0.322227 -0.0140822 0
0.338736 -0.00927399 0
0.376785 -0.0556913 0
0.397895 -0.0792264 0
0.422995 -0.10559 0
0.455804 -0.125716 0
0.476667 -0.139057 0
0.499603 -0.159136 0
0.525871 -0.174487 0
0.550456 -0.199519 0
0.579122 -0.211088 0
0.599696 -0.224417 0
0.624727 -0.245948 0
0.653056 -0.258723 0
0.675721 -0.271942 0
0.696926 -0.290378 0
0.7294 -0.307935 0
0.752391 -0.316107 0
0.768483 -0.328855 0
0.802758 -0.347278 0
0.82663 -0.359279 0
0.845621 -0.373628 0
0.878135 -0.39009 0
0.900545 -0.40038 0
0.920264 -0.412567 0
0.950353 -0.428975 0
0.976323 -0.442068 0
0.99862 -0.453639 0
1.02441 -0.466518 0
1.05022 -0.478597 0
1.0746 -0.490711 0
1.09836 -0.503149 0
1.12326 -0.514388 0
1.15039 -0.525668 0
1.17524 -0.538247 0
1.19728 -0.54986 0
1.22261 -0.559732 0
1.25047 -0.57051 0
1.27531 -0.582401 0
1.2984 -0.592788 0
1.32359 -0.601734 0
1.35004 -0.611307 0
1.37551 -0.621408 0
1.39991 -0.631014 0
1.42416 -0.640511 0
1.44914 -0.650178 0
1.47505 -0.659326 0
1.50098 -0.667767 0
1.5257 -0.676087 0
1.54931 -0.684564 0
1.5732 -0.692947 0
1.59839 -0.701176 0
1.62441 -0.709476 0
1.65007 -0.717692 0
1.67476 -0.725316 0
1.69898 -0.732275 0
1.72358 -0.739018 0
1.74885 -0.745827 0
1.77437 -0.752535 0
1.79967 -0.758969 0
1.8247 -0.765124 0
1.84968 -0.770966 0
1.87477 -0.776391 0
1.89992 -0.781378 0
1.92507 -0.786026 0
1.95021 -0.790471 0
1.97538 -0.794836 0
2.00056 -0.79925 0
2.02574 -0.803776 0
2.0509 -0.80837 0
2.07599 -0.81293 0
2.10097 -0.817356 0
2.12585 -0.821576 0
2.15066 -0.825542 0
2.17547 -0.82922 0
2.20037 -0.832586 0
2.22538 -0.835634 0
2.25052 -0.838373 0
2.27576 -0.840824 0
2.30106 -0.843006 0
2.32639 -0.844928 0
2.35172 -0.846591 0
2.37704 -0.847989 0
2.40234 -0.849123 0
2.4276 -0.850001 0
2.45281 -0.85064 0
2.47796 -0.851057 0
2.50305 -0.851279 0
0.0275025 0.0230673 0
0.0492745 0.0202592 0
0.0717678 0.0245616 0
0.098722 0.0211653 0
0.125319 0.0186497 0
0.149932 0.0218937 0
0.172023 0.0181662 0
0.199144 0.0112828 0
0.228079 0.0226515 0
0.250216 0.0114351 0
0.265289 0.0225849 0
0.309819 0.00290029 0
0.321601 -0.00410177 0
0.348695 -0.0101791 0
0.369144 -0.0358277 0
0.405088 -0.0627851 0
0.427409 -0.0855784 0
0.445964 -0.0926847 0
0.477431 -0.121867 0
0.505789 -0.134958 0
0.52567 -0.153462 0
0.554243 -0.169514 0
0.575225 -0.182085 0
0.5999 -0.20492 0
0.625332 -0.218264 0
0.645787 -0.233187 0
0.680412 -0.255691 0
0.70356 -0.261257 0
0.7192 -0.271993 0
0.749033 -0.293363 0
0.778473 -0.311838 0
0.802335 -0.324533 0
0.82311 -0.333718 0
0.846583 -0.348621 0
0.875755 -0.364268 0
0.900468 -0.375931 0
0.92317 -0.389787 0
0.950215 -0.404594 0
0.975851 -0.41682 0
0.998619 -0.42859 0
1.02326 -0.441953 0
1.04976 -0.454423 0
1.07493 -0.466428 0
1.0989 -0.478765 0
1.12361 -0.490173 0
1.14924 -0.501284 0
1.17428 -0.51336 0
1.19851 -0.525279 0
1.22368 -0.536072 0
1.24965 -0.546552 0
1.2746 -0.557278 0
1.29879 -0.567584 0
1.32382 -0.577317 0
1.34967 -0.587082 0
1.37524 -0.596877 0
1.40002 -0.606431 0
1.42444 -0.616069 0
1.44931 -0.625704 0
1.47493 -0.634648 0
1.50059 -0.64287 0
1.52536 -0.651164 0
1.54935 -0.659767 0
1.57358 -0.668378 0
1.59873 -0.676804 0
1.62439 -0.684992 0
1.64974 -0.692844 0
1.67451 -0.700302 0
1.69903 -0.707399 0
1.72377 -0.714301 0
1.74892 -0.721146 0
1.7743 -0.727821 0
1.79959 -0.734178 0
1.82468 -0.740252 0
1.84969 -0.746065 0
1.87477 -0.751513 0
1.89991 -0.756525 0
1.92506 -0.761182 0
1.95021 -0.76564 0
1.97538 -0.770033 0
2.00056 -0.774463 0
2.02574 -0.778977 0
2.05089 -0.783529 0
2.07596 -0.78803 0
2.10094 -0.792396 0
2.12582 -0.796573 0
2.15065 -0.800523 0
2.17548 -0.804212 0
2.20039 -0.807606 0
2.22541 -0.810686 0
2.25055 -0.813452 0
2.27577 -0.81592 0
2.30107 -0.818109 0
2.32639 -0.820029 0
2.35172 -0.821686 0
2.37703 -0.823075 0
2.40233 -0.8242 0
2.42758 -0.825068 0
2.4528 -0.825696 0
2.47795 -0.826099 0
2.50304 -0.826309 0
0.0203533 0.0542581 0
0.0493057 0.0533089 0
0.0744339 0.049918 0
0.096736 0.0496871 0
0.124289 0.0513372 0
0.153629 0.0506146 0
0.169985 0.0526037 0
0.195863 0.0441613 0
0.230377 0.045885 0
0.251215 0.0410896 0
0.279499 0.029605 0
0.294431 0.0301953 0
0.325208 0.0189913 0
0.35942 0.000229173 0
0.37765 -0.0213496 0
0.402053 -0.0304465 0
0.427066 -0.0540474 0
0.450535 -0.0822094 0
0.476131 -0.0966353 0
0.504389 -0.115926 0
0.523467 -0.126242 0
0.551036 -0.149099 0
0.577905 -0.154978 0
0.597999 -0.183396 0
0.631085 -0.197979 0
0.653554 -0.201952 0
0.670962 -0.221532 0
0.699321 -0.239739 0
0.727781 -0.25709 0
0.750948 -0.268741 0
0.77327 -0.281227 0
0.799811 -0.297844 0
0.825029 -0.312162 0
0.848866 -0.326204 0
0.875295 -0.339114 0
0.899867 -0.350965 0
0.923562 -0.365803 0
0.950133 -0.380011 0
0.975491 -0.391039 0
0.998492 -0.403541 0
1.02329 -0.417313 0
1.04958 -0.430065 0
1.07474 -0.441815 0
1.09915 -0.453749 0
1.12365 -0.465501 0
1.1485 -0.477043 0
1.17399 -0.488644 0
1.19933 -0.500401 0
1.22412 -0.511719 0
1.2491 -0.52218 0
1.27428 -0.532191 0
1.29908 -0.542299 0
1.3239 -0.55253 0
1.34939 -0.562602 0
1.37508 -0.572287 0
1.40012 -0.581785 0
1.42463 -0.591373 0
1.44942 -0.600812 0
1.47484 -0.609638 0
1.50031 -0.61792 0
1.52512 -0.626232 0
1.5494 -0.634922 0
1.5739 -0.643721 0
1.59901 -0.652174 0
1.62438 -0.660179 0
1.64952 -0.667867 0
1.67433 -0.67528 0
1.69903 -0.682444 0
1.72387 -0.689444 0
1.74897 -0.696299 0
1.77427 -0.702961 0
1.79954 -0.709286 0
1.82466 -0.715279 0
1.84969 -0.721063 0
1.87477 -0.726565 0
1.8999 -0.731623 0
1.92505 -0.736301 0
1.95022 -0.74078 0
1.97539 -0.745197 0
2.00057 -0.749636 0
2.02575 -0.754129 0
2.05089 -0.758632 0
2.07595 -0.76307 0
2.10092 -0.767382 0
2.1258 -0.771529 0
2.15064 -0.775478 0
2.17549 -0.779188 0
2.20041 -0.782615 0
2.22543 -0.785728 0
2.25057 -0.78852 0
2.27579 -0.791005 0
2.30107 -0.793201 0
2.32639 -0.795122 0
2.35172 -0.796775 0
2.37703 -0.798161 0
2.40232 -0.799281 0
2.42758 -0.800143 0
2.45279 -0.800764 0
2.47795 -0.801161 0
2.50304 -0.801368 0
0.0212175 0.0705993 0
0.0516725 0.0670734 0
0.0739841 0.0698959 0
0.0981137 0.059698 0
0.126099 0.0647675 0
0.15004 0.0604322 0
0.173714 0.064353 0
0.193594 0.054718 0
0.226221 0.0551269 0
0.24233 0.048105 0
0.272075 0.0485028 0
0.309223 0.0316442 0
0.324623 0.0315424 0
0.358528 0.0138223 0
0.370145 0.00473222 0
0.408889 -0.0198425 0
0.428006 -0.0303678 0
0.456375 -0.0530786 0
0.47869 -0.060933 0
0.501308 -0.0846095 0
0.525532 -0.10308 0
0.551871 -0.118803 0
0.579315 -0.138195 0
0.597493 -0.15083 0
0.625731 -0.16945 0
0.653865 -0.184146 0
0.672536 -0.20157 0
0.700842 -0.217577 0
0.729876 -0.230431 0
0.748346 -0.243844 0
0.772228 -0.25664 0
0.801255 -0.270635 0
0.824134 -0.285602 0
0.848397 -0.302521 0
0.87681 -0.316762 0
0.900942 -0.326965 0
0.922876 -0.34018 0
0.948427 -0.35451 0
0.974887 -0.366161 0
0.999497 -0.378733 0
1.02409 -0.393034 0
1.04931 -0.405368 0
1.07413 -0.416277 0
1.09898 -0.428886 0
1.12386 -0.441303 0
1.14849 -0.452454 0
1.17385 -0.463985 0
1.19943 -0.475651 0
1.22411 -0.486795 0
1.24884 -0.4974 0
1.27423 -0.507303 0
1.29931 -0.517232 0
1.32401 -0.527759 0
1.34925 -0.538099 0
1.37492 -0.547661 0
1.40009 -0.556945 0
1.42471 -0.566457 0
1.44953 -0.575897 0
1.47482 -0.584663 0
1.50011 -0.592921 0
1.52496 -0.601379 0
1.5495 -0.610224 0
1.57417 -0.61901 0
1.59918 -0.627365 0
1.62435 -0.635266 0
1.64937 -0.64286 0
1.67421 -0.650297 0
1.699 -0.657549 0
1.7239 -0.664552 0
1.749 -0.671407 0
1.77425 -0.678077 0
1.79951 -0.684355 0
1.82464 -0.690292 0
1.8497 -0.696073 0
1.87477 -0.701613 0
1.8999 -0.706715 0
1.92505 -0.711421 0
1.95022 -0.715921 0
1.9754 -0.720361 0
2.00059 -0.724805 0
2.02576 -0.72927 0
2.0509 -0.733716 0
2.07595 -0.738087 0
2.1009 -0.742349 0
2.12578 -0.746475 0
2.15062 -0.750434 0
2.17548 -0.754173 0
2.20041 -0.757636 0
2.22544 -0.760783 0
2.25058 -0.763599 0
2.2758 -0.766098 0
2.30108 -0.768301 0
2.32639 -0.770224 0
2.35171 -0.771877 0
2.37703 -0.77326 0
2.40232 -0.774376 0
2.42758 -0.775235 0
2.45279 -0.775851 0
2.47795 -0.776245 0
2.50305 -0.77645 0
0.0237924 0.0966014 0
0.0486023 0.0990652 0
0.0740283 0.104052 0
0.103393 0.0985051 0
0.12378 0.107747 0
0.146382 0.101219 0
0.178172 0.102073 0
0.192716 0.0958367 0
0.227446 0.0928409 0
0.253057 0.0764306 0
0.270215 0.0813556 0
0.306965 0.0636804 0
0.321308 0.0559319 0
0.359097 0.0348781 0
0.37513 0.0197627 0
0.403464 -0.00115696 0
0.428884 -0.00230175 0
0.453308 -0.0393449 0
0.476485 -0.0345491 0
0.503546 -0.0624374 0
0.527491 -0.0867783 0
0.554984 -0.0960577 0
0.574873 -0.109355 0
0.598094 -0.126408 0
0.623965 -0.145178 0
0.651281 -0.161555 0
0.676812 -0.179507 0
0.700957 -0.189331 0
0.724873 -0.199547 0
0.748089 -0.220896 0
0.776394 -0.237506 0
0.802912 -0.247065 0
0.823231 -0.258994 0
0.84751 -0.276864 0
0.875918 -0.290068 0
0.900666 -0.301983 0
0.923623 -0.317641 0
0.948503 -0.329261 0
0.974272 -0.340686 0
0.999907 -0.355482 0
1.02455 -0.368121 0
1.04868 -0.379389 0
1.07373 -0.391394 0
1.09906 -0.404303 0
1.12404 -0.4169 0
1.14885 -0.4282 0
1.17382 -0.43914 0
1.19889 -0.450367 0
1.2238 -0.461934 0
1.24894 -0.472761 0
1.27435 -0.482405 0
1.29939 -0.492393 0
1.32415 -0.503231 0
1.34927 -0.513495 0
1.37471 -0.522792 0
1.3999 -0.532029 0
1.42475 -0.541579 0
1.44966 -0.550945 0
1.47482 -0.559702 0
1.49999 -0.568095 0
1.52491 -0.576671 0
1.54962 -0.585525 0
1.57435 -0.594227 0
1.59924 -0.602447 0
1.62427 -0.610292 0
1.64927 -0.617932 0
1.67414 -0.625403 0
1.69896 -0.632649 0
1.7239 -0.639656 0
1.749 -0.646528 0
1.77423 -0.65318 0
1.79947 -0.659415 0
1.82462 -0.665329 0
1.8497 -0.671113 0
1.87478 -0.676676 0
1.89989 -0.681814 0
1.92505 -0.686551 0
1.95022 -0.691075 0
1.9754 -0.695533 0
2.0006 -0.699977 0
2.02577 -0.70441 0
2.0509 -0.708796 0
2.07595 -0.713102 0
2.1009 -0.717316 0
2.12577 -0.721428 0
2.15061 -0.725402 0
2.17547 -0.729175 0
2.2004 -0.732676 0
2.22544 -0.735854 0
2.25058 -0.738693 0
2.2758 -0.741204 0
2.30108 -0.743413 0
2.32639 -0.745338 0
2.35172 -0.746991 0
2.37703 -0.748372 0
2.40232 -0.749486 0
2.42758 -0.75034 0
2.4528 -0.750952 0
2.47796 -0.751342 0
2.50306 -0.751547 0
0.0223172 0.126923 0
0.0492843 0.130206 0
0.079279 0.123883 0
0.102483 0.129013 0
0.122042 0.125423 0
0.147164 0.112642 0
0.178696 0.124281 0
0.193736 0.111521 0
0.232242 0.109267 0
0.251774 0.105401 0
0.275431 0.103771 0
0.299914 0.0963362 0
0.32638 0.0802328 0
0.354508 0.0689831 0
0.379739 0.0502051 0
0.403829 0.0395129 0
0.430658 0.0114231 0
0.449082 -0.00102991 0
0.479253 -0.020686 0
0.505087 -0.0351189 0
0.524102 -0.0600496 0
0.552126 -0.0661061 0
0.576308 -0.0915525 0
0.601849 -0.117103 0
0.625757 -0.118321 0
0.648538 -0.12441 0
0.674 -0.155021 0
0.70198 -0.165789 0
0.725857 -0.17666 0
0.74936 -0.195747 0
0.775542 -0.210268 0
0.801059 -0.223729 0
0.824723 -0.238365 0
0.848633 -0.250815 0
0.873954 -0.261923 0
0.899464 -0.277478 0
0.924594 -0.293759 0
0.949834 -0.30541 0
0.974636 -0.316322 0
0.999197 -0.330574 0
1.02392 -0.343229 0
1.04858 -0.354113 0
1.07367 -0.366684 0
1.09918 -0.379876 0
1.1242 -0.392371 0
1.1489 -0.403406 0
1.17371 -0.414049 0
1.19857 -0.425451 0
1.22363 -0.437185 0
1.24905 -0.448027 0
1.27444 -0.457708 0
1.2994 -0.467744 0
1.32418 -0.478596 0
1.34928 -0.488831 0
1.37458 -0.497932 0
1.39972 -0.507026 0
1.42472 -0.516632 0
1.44977 -0.526064 0
1.47488 -0.534846 0
1.49997 -0.543369 0
1.52493 -0.552047 0
1.54972 -0.560783 0
1.57443 -0.569293 0
1.59924 -0.577454 0
1.6242 -0.585356 0
1.6492 -0.593076 0
1.6741 -0.600539 0
1.69894 -0.607728 0
1.72388 -0.614761 0
1.74898 -0.621669 0
1.7742 -0.628278 0
1.79943 -0.634475 0
1.82461 -0.640397 0
1.84971 -0.646184 0
1.87479 -0.651752 0
1.89989 -0.656916 0
1.92504 -0.661681 0
1.95022 -0.666229 0
1.97541 -0.670702 0
2.0006 -0.675143 0
2.02578 -0.679545 0
2.05091 -0.683874 0
2.07595 -0.688118 0
2.1009 -0.692287 0
2.12576 -0.696387 0
2.15059 -0.700379 0
2.17545 -0.704189 0
2.20039 -0.70773 0
2.22543 -0.71094 0
2.25057 -0.7138 0
2.2758 -0.716322 0
2.30108 -0.718535 0
2.32639 -0.720463 0
2.35172 -0.722115 0
2.37703 -0.723495 0
2.40233 -0.724605 0
2.42759 -0.725454 0
2.45281 -0.72606 0
2.47797 -0.726445 0
2.50308 -0.726648 0
0.0250692 0.148534 0
0.050895 0.14527 0
0.0742652 0.142584 0
0.0929129 0.142286 0
0.121373 0.144145 0
0.155694 0.131029 0
0.174154 0.134929 0
0.197861 0.131995 0
0.215178 0.132986 0
0.254623 0.116103 0
0.277648 0.118596 0
0.306237 0.106975 0
0.330929 0.0931686 0
0.351692 0.090636 0
0.383653 0.0634538 0
0.404043 0.0628016 0
0.432941 0.0306653 0
0.4506 0.0297686 0
0.481293 0.00351566 0
0.501591 -0.0155911 0
0.52465 -0.0221708 0
0.5542 -0.0410675 0
0.576071 -0.0555043 0
0.600564 -0.0713176 0
0.631502 -0.0939825 0
0.651638 -0.110547 0
0.67553 -0.120734 0
0.702588 -0.141839 0
0.727115 -0.155022 0
0.749022 -0.16788 0
0.773108 -0.185258 0
0.800243 -0.199603 0
0.825928 -0.213652 0
0.849403 -0.226662 0
0.873608 -0.238588 0
0.899362 -0.252901 0
0.924904 -0.268422 0
0.949784 -0.280453 0
0.97448 -0.291955 0
0.998937 -0.305437 0
1.02372 -0.318844 0
1.04879 -0.33039 0
1.07381 -0.341855 0
1.09892 -0.355053 0
1.12392 -0.367731 0
1.14877 -0.378237 0
1.17364 -0.389046 0
1.19859 -0.401084 0
1.22381 -0.41281 0
1.24918 -0.423227 0
1.27431 -0.432956 0
1.29919 -0.44328 0
1.32415 -0.454019 0
1.34934 -0.464001 0
1.37451 -0.473108 0
1.39955 -0.48221 0
1.42464 -0.491733 0
1.44984 -0.501214 0
1.475 -0.510161 0
1.50003 -0.518757 0
1.52495 -0.527406 0
1.54974 -0.536008 0
1.57445 -0.544312 0
1.59922 -0.552454 0
1.62414 -0.560534 0
1.64914 -0.568309 0
1.67407 -0.575678 0
1.69893 -0.582829 0
1.72386 -0.589899 0
1.74894 -0.596835 0
1.77415 -0.603425 0
1.7994 -0.609581 0
1.82461 -0.615497 0
1.84972 -0.621303 0
1.87479 -0.626866 0
1.89989 -0.632026 0
1.92504 -0.636817 0
1.95022 -0.641394 0
1.97541 -0.645875 0
2.0006 -0.650311 0
2.02578 -0.654687 0
2.05091 -0.658969 0
2.07597 -0.663155 0
2.10091 -0.667282 0
2.12577 -0.671367 0
2.15058 -0.675377 0
2.17543 -0.679223 0
2.20036 -0.682804 0
2.2254 -0.686046 0
2.25055 -0.688924 0
2.27579 -0.691456 0
2.30108 -0.693673 0
2.32639 -0.6956 0
2.35172 -0.697251 0
2.37704 -0.698628 0
2.40234 -0.699733 0
2.42761 -0.700573 0
2.45283 -0.701169 0
2.47799 -0.701546 0
2.50309 -0.701745 0
0.0246598 0.17517 0
0.0483176 0.17539 0
0.0742325 0.174287 0
0.0993044 0.178666 0
0.12687 0.169923 0
0.146357 0.172305 0
0.178419 0.168594 0
0.199257 0.167405 0
0.228679 0.167515 0
0.252802 0.157972 0
0.274308 0.145248 0
0.301646 0.135849 0
0.324818 0.125297 0
0.355087 0.106724 0
0.379028 0.100803 0
0.402212 0.0767266 0
0.42938 0.0698489 0
0.455677 0.0465249 0
0.477205 0.0285528 0
0.503803 0.0195801 0
0.527465 0.000726848 0
0.551298 -0.0220963 0
0.577321 -0.0333808 0
0.600433 -0.0483314 0
0.626513 -0.0634195 0
0.652245 -0.0837901 0
0.674774 -0.101841 0
0.700269 -0.115451 0
0.725879 -0.130367 0
0.750046 -0.147514 0
0.774992 -0.160201 0
0.800244 -0.172141 0
0.825067 -0.189442 0
0.849757 -0.205532 0
0.874699 -0.216032 0
0.899725 -0.227999 0
0.924273 -0.242707 0
0.948661 -0.255511 0
0.973705 -0.267047 0
0.999289 -0.281101 0
1.02456 -0.295679 0
1.04909 -0.306987 0
1.07352 -0.317377 0
1.09848 -0.330033 0
1.12356 -0.342768 0
1.14848 -0.353746 0
1.17361 -0.364721 0
1.19887 -0.377015 0
1.22407 -0.388755 0
1.24928 -0.398614 0
1.27414 -0.408269 0
1.29882 -0.418989 0
1.32402 -0.429769 0
1.34951 -0.439468 0
1.37456 -0.448384 0
1.39934 -0.457552 0
1.42448 -0.467206 0
1.44991 -0.476684 0
1.47516 -0.485638 0
1.5001 -0.49433 0
1.52494 -0.502904 0
1.54972 -0.511263 0
1.57444 -0.519479 0
1.59918 -0.527715 0
1.62408 -0.535888 0
1.6491 -0.543692 0
1.67405 -0.550982 0
1.69892 -0.558029 0
1.72382 -0.565151 0
1.74888 -0.572169 0
1.7741 -0.578716 0
1.79939 -0.584819 0
1.82462 -0.59074 0
1.84973 -0.596535 0
1.87479 -0.602071 0
1.89988 -0.607227 0
1.92504 -0.612027 0
1.95022 -0.616603 0
1.97541 -0.62108 0
2.00059 -0.625514 0
2.02578 -0.629874 0
2.05093 -0.634117 0
2.07599 -0.638249 0
2.10094 -0.642329 0
2.12577 -0.646394 0
2.15057 -0.650415 0
2.1754 -0.654294 0
2.20032 -0.657912 0
2.22537 -0.661183 0
2.25053 -0.664079 0
2.27577 -0.666618 0
2.30107 -0.668835 0
2.32639 -0.670761 0
2.35172 -0.672408 0
2.37705 -0.673779 0
2.40235 -0.674873 0
2.42762 -0.6757 0
2.45285 -0.676279 0
2.47801 -0.676639 0
2.50312 -0.676829 0
</DataArray>
</Points>
<PointData>
<DataArray NumberOfComponents='1' type='Int32' Name='Particle Type' format='ascii'>
0
0
0
0
0
0
0
0
0
0
0
0
0
0
0
0
0
0
0
0
0
0
1
1
1
1
1
1
1
1
1
1
1
1
1
1
1
1
1
1
1
1
1
1
1
1
1
1
1
1
1
1
1
1
1
1
1
1
1
1
1
1
1
1
1
1
1
1
1
1
1
1
1
1
1
1
1
1
1
1
1
1
1
1
1
1
1
1
1
1
1
1
1
1
1
1
1
1
1
1
1
1
1
1
1
1
1
1
1
1
1
1
1
1
1
1
1
1
1
1
1
1
1
1
1
1
1
1
1
1
1
1
1
1
1
1
1
1
1
1
1
1
1
1
1
1
1
1
1
1
1
1
1
1
1
1
1
1
1
1
1
1
1
1
1
1
1
1
1
1
1
1
1
1
1
1
1
1
1
1
1
1
1
1
1
1
1
1
1
1
1
1
1
1
1
1
1
1
1
1
1
1
1
1
1
1
1
1
1
1
1
1
1
1
1
1
1
1
1
1
1
1
1
1
1
1
1
1
1
1
1
1
1
1
1
1
1
1
1
1
1
1
1
1
1
1
1
1
1
1
1
1
1
1
1
1
1
1
1
1
1
1
1
1
1
1
1
1
1
1
1
1
1
1
1
1
1
1
1
1
1
1
1
1
1
1
1
1
1
1
1
1
1
1
1
1
1
1
1
1
1
1
1
1
1
1
1
1
1
1
1
1
1
1
1
1
1
1
1
1
1
1
1
1
1
1
1
1
1
1
1
1
1
1
1
1
1
1
1
1
1
1
1
1
1
1
1
1
1
1
1
1
1
1
1
1
1
1
1
1
1
1
1
1
1
1
1
1
1
1
1
1
1
1
1
1
1
1
1
1
1
1
1
1
1
1
1
1
1
1
1
1
1
1
1
1
1
1
1
1
1
1
1
1
1
1
1
1
1
1
1
1
1
1
1
1
1
1
1
1
1
1
1
1
1
1
1
1
1
1
1
1
1
1
1
1
1
1
1
1
1
1
1
1
1
1
1
1
1
1
1
1
1
1
1
1
1
1
1
1
1
1
1
1
1
1
1
1
1
1
1
1
1
1
1
1
1
1
1
1
1
1
1
1
1
1
1
1
1
1
1
1
1
1
1
1
1
1
1
1
1
1
1
1
1
1
1
1
1
1
1
1
1
1
1
1
1
1
1
1
1
1
1
1
1
1
1
1
1
1
1
1
1
1
1
1
1
1
1
1
1
1
1
1
1
1
1
1
1
1
1
1
1
1
1
1
1
1
1
1
1
1
1
1
1
1
1
1
1
1
1
1
1
1
1
1
1
1
1
1
1
1
1
1
1
1
1
1
1
1
1
1
1
1
1
1
1
1
1
1
1
1
1
1
1
1
1
1
1
1
1
1
1
1
1
1
1
1
1
1
1
1
1
1
1
1
1
1
1
1
1
1
1
1
1
1
1
1
1
1
1
1
1
1
1
1
1
1
1
1
1
1
1
1
1
1
1
1
1
1
1
1
1
1
1
1
1
1
1
1
1
1
1
1
1
1
1
1
1
1
1
1
1
1
1
1
1
1
1
1
1
1
1
1
1
1
1
1
1
1
1
1
1
1
1
1
1
1
1
1
1
1
1
1
1
1
1
1
1
1
1
1
1
1
1
1
1
1
1
1
1
1
1
1
1
1
1
1
1
1
1
1
1
1
1
1
1
1
1
1
1
1
1
1
1
1
1
1
1
1
1
1
1
1
1
1
1
1
1
1
1
1
1
1
1
1
1
1
1
1
1
1
1
1
1
1
1
1
1
1
1
1
1
1
1
1
1
1
1
1
1
1
1
1
1
1
1
1
</DataArray>
<DataArray NumberOfComponents='3' type='Float64' Name='Velocity' format='ascii'>
0 0 0
0 0 0
0 0 0
0 0 0
0 0 0
0 0 0
0 0 0
0 0 0
0 0 0
0 0 0
0 0 0
0 0 0
0 0 0
0 0 0
0 0 0
0.0477363 -0.200105 0
0 0 0
-0.137275 -0.177797 0
-0.137949 -0.188606 0
-0.0616146 -0.532027 0
-0.0473254 -0.303774 0
-0.200112 -0.271804 0
0.0171598 -0.135995 0
0.239331 -0.101241 0
-0.239136 0.117391 0
-0.0516704 -0.195116 0
0.195207 -0.0726715 0
-0.0300605 -0.0655677 0
0.00534553 0.0979255 0
-0.111675 0.0599734 0
-0.019118 -0.313459 0
0.0922774 0.0206252 0
-0.110143 -0.0659623 0
-0.0219184 -0.229168 0
0.149535 -0.0785637 0
-0.0940788 0.0350766 0
-0.179005 -0.223672 0
0.317864 -0.380407 0
-0.0174548 -0.072749 0
-0.238273 -0.10518 0
0.204264 -0.198004 0
-0.0717721 -0.0523957 0
-0.122721 -0.180241 0
0.207531 -0.262045 0
-0.027959 -0.104015 0
-0.146492 -0.103104 0
0.044003 -0.208478 0
0.0132158 -0.196369 0
-0.045318 -0.194293 0
-0.000908549 -0.216677 0
0.0281472 -0.199007 0
0.0199683 -0.213105 0
-0.0483726 -0.237886 0
-0.0497853 -0.209537 0
0.063838 -0.200602 0
0.0503855 -0.254902 0
-0.0765692 -0.266685 0
-0.0592063 -0.219243 0
0.0397776 -0.227221 0
0.0248607 -0.287919 0
-0.0399177 -0.301142 0
-0.0378907 -0.276421 0
0.00189172 -0.277971 0
0.0210835 -0.289001 0
0.00822515 -0.282053 0
-0.0232094 -0.285978 0
-0.0402086 -0.309913 0
-0.015665 -0.326881 0
0.0291623 -0.326072 0
0.0437575 -0.323247 0
0.0125466 -0.325759 0
-0.0280664 -0.325186 0
-0.0364318 -0.323499 0
-0.010675 -0.335311 0
0.016995 -0.357818 0
0.0189949 -0.371753 0
-0.000915488 -0.372159 0
-0.0177304 -0.372067 0
-0.0173956 -0.379 0
-0.0078192 -0.387806 0
-0.00225669 -0.396952 0
-0.0035645 -0.408579 0
-0.00613362 -0.422662 0
-0.0066356 -0.434808 0
-0.00618523 -0.442799 0
-0.00622768 -0.446638 0
-0.00670549 -0.446704 0
-0.00705254 -0.443451 0
-0.00668937 -0.440053 0
-0.00502367 -0.439309 0
-0.00179667 -0.442104 0
0.00241315 -0.44781 0
0.00622494 -0.455398 0
0.00819891 -0.46412 0
0.00771004 -0.473529 0
0.00525625 -0.483235 0
0.00204911 -0.492796 0
-0.000709233 -0.501855 0
-0.0023403 -0.510335 0
-0.00277983 -0.518458 0
-0.00236738 -0.526543 0
-0.00155226 -0.534756 0
-0.000686495 -0.542971 0
4.56646e-05 -0.550805 0
0.000597609 -0.557759 0
0.000988445 -0.563366 0
0.00123809 -0.567273 0
0.00133365 -0.569442 0
0.0712414 -0.484733 0
-0.0276839 0.150411 0
-0.177164 -0.153979 0
-0.0298661 -0.154658 0
0.101918 0.00166376 0
-0.0356839 0.0994841 0
-0.099282 -0.0672307 0
0.101061 0.323167 0
0.0518843 -0.22304 0
-0.403208 0.400891 0
0.212867 0.0639673 0
-0.168336 0.152023 0
0.039514 -0.160274 0
0.0140039 0.279809 0
-0.120821 0.131557 0
-0.346786 0.0633788 0
0.336277 -0.363526 0
0.0493844 0.0163338 0
-0.301869 0.089503 0
0.0961212 -0.203784 0
0.0146107 -0.00467579 0
0.0145114 -0.276338 0
0.182663 0.00360798 0
-0.0673319 0.00802274 0
0.164476 -0.235 0
-0.158638 0.131637 0
-0.2687 -0.228638 0
0.358369 -0.515566 0
0.0823578 0.0085722 0
-0.292102 0.180954 0
-0.0768497 -0.0556467 0
0.128022 -0.308898 0
0.146169 -0.258622 0
-0.0705223 -0.0822131 0
-0.108921 -0.159274 0
0.0543848 -0.189501 0
-0.01318 -0.114079 0
-0.0692617 -0.156191 0
0.0373996 -0.223582 0
0.0513043 -0.190121 0
-0.0373625 -0.171891 0
-0.0464571 -0.207084 0
0.0109261 -0.200539 0
0.0192371 -0.213197 0
-0.0119714 -0.241088 0
-0.0192765 -0.221808 0
0.00715315 -0.201255 0
0.00443598 -0.226793 0
-0.0286589 -0.253887 0
-0.0213138 -0.253086 0
0.0137683 -0.254588 0
0.00869994 -0.273482 0
-0.0236058 -0.280856 0
-0.0313634 -0.278121 0
-0.0101228 -0.282833 0
0.0110706 -0.28575 0
0.0089867 -0.28072 0
-0.0142805 -0.292273 0
-0.0294119 -0.319646 0
-0.0123626 -0.331158 0
0.0204373 -0.321951 0
0.0300028 -0.315957 0
0.00652832 -0.317474 0
-0.0206635 -0.323294 0
-0.0232768 -0.333132 0
-0.00569261 -0.345758 0
0.00979558 -0.35769 0
0.0103845 -0.366173 0
-0.000939271 -0.369273 0
-0.0126699 -0.372229 0
-0.0149966 -0.380721 0
-0.00899549 -0.39069 0
-0.0037238 -0.398858 0
-0.00367547 -0.408495 0
-0.00575088 -0.421675 0
-0.00662007 -0.434222 0
-0.00646435 -0.442519 0
-0.00651516 -0.445864 0
-0.00689167 -0.445956 0
-0.00706084 -0.443434 0
-0.0064057 -0.441061 0
-0.00447531 -0.441181 0
-0.00125928 -0.444347 0
0.00257898 -0.449783 0
0.0058707 -0.456591 0
0.00751283 -0.464382 0
0.00705378 -0.473075 0
0.00490146 -0.482464 0
0.00205102 -0.492091 0
-0.000465837 -0.501461 0
-0.00202978 -0.510325 0
-0.00253871 -0.518759 0
-0.00225167 -0.527008 0
-0.00154852 -0.535235 0
-0.000746693 -0.543366 0
-3.0312e-05 -0.551081 0
0.000536935 -0.557927 0
0.000957031 -0.563455 0
0.00124523 -0.567302 0
0.00141123 -0.569423 0
-0.263082 0.173798 0
0.155764 0.166953 0
-0.000759204 -0.183916 0
0.0613296 0.0353929 0
0.109128 -0.338879 0
-0.0750942 0.376469 0
-0.416566 -0.464996 0
0.514124 0.499377 0
0.0157862 -0.270156 0
0.112769 0.0141341 0
0.282421 -0.27961 0
-0.330663 0.130346 0
0.116275 -0.000167063 0
0.0241933 0.0783557 0
0.132648 -0.0260981 0
0.051758 -0.454758 0
0.0288722 0.546085 0
-0.0195419 -0.111632 0
-0.110385 0.0751307 0
0.0354666 -0.383958 0
0.106531 -0.0350818 0
-0.217254 -0.245848 0
0.0877162 -0.162721 0
-0.119334 0.22583 0
-0.171394 -0.58368 0
0.32727 -0.280328 0
0.0902064 0.0806663 0
-0.180717 0.0418107 0
-0.0478404 -0.107058 0
0.111012 -0.281068 0
0.0291184 -0.0925695 0
-0.0729016 -0.0605057 0
0.0128353 -0.1386 0
-0.00976741 -0.178741 0
-0.0319801 -0.222801 0
0.0343891 -0.167442 0
-0.0228291 -0.104083 0
-0.0551909 -0.206388 0
0.0417225 -0.230327 0
0.0444502 -0.163184 0
-0.0388499 -0.157945 0
-0.0411875 -0.199079 0
0.00238364 -0.21646 0
0.0148148 -0.21754 0
0.00985125 -0.221843 0
-0.0139999 -0.220944 0
-0.0300977 -0.216152 0
-0.0101528 -0.218058 0
0.0032955 -0.244241 0
-0.00643887 -0.270522 0
-0.00513143 -0.274818 0
0.00306658 -0.26661 0
-0.0108771 -0.264379 0
-0.0292395 -0.273221 0
-0.0195076 -0.283904 0
0.00534591 -0.286245 0
0.0103067 -0.287378 0
-0.00849554 -0.300488 0
-0.0221553 -0.320227 0
-0.00962464 -0.328253 0
0.0138858 -0.319735 0
0.018856 -0.309308 0
0.00173565 -0.312929 0
-0.0144035 -0.327299 0
-0.0133596 -0.340199 0
-0.00198685 -0.349413 0
0.00587316 -0.357425 0
0.00515971 -0.363257 0
-0.0019287 -0.367615 0
-0.0102716 -0.372895 0
-0.0133238 -0.381276 0
-0.00939507 -0.392685 0
-0.00453227 -0.40108 0
-0.00382125 -0.407716 0
-0.00558052 -0.419504 0
-0.00662876 -0.433192 0
-0.00670769 -0.441834 0
-0.00681367 -0.445045 0
-0.0071385 -0.445391 0
-0.00716411 -0.443722 0
-0.00623686 -0.442431 0
-0.004028 -0.443318 0
-0.000745752 -0.446563 0
0.0028604 -0.4514 0
0.00575937 -0.457262 0
0.00708914 -0.464174 0
0.00655703 -0.472332 0
0.00455799 -0.481596 0
0.00195456 -0.491407 0
-0.000359287 -0.501117 0
-0.00183398 -0.51033 0
-0.00236262 -0.519023 0
-0.00215555 -0.527404 0
-0.00153821 -0.535654 0
-0.000792322 -0.543743 0
-9.24783e-05 -0.551397 0
0.000489571 -0.558193 0
0.000944136 -0.563692 0
0.00128177 -0.567526 0
0.00152482 -0.569647 0
-0.0125614 -0.122905 0
0.165653 -0.0323666 0
-0.159738 -0.376388 0
-0.0293459 0.199656 0
0.226283 0.218319 0
-0.0214767 0.397814 0
-0.0229629 -0.0666132 0
-0.345968 0.0938266 0
-0.0296777 -0.166152 0
-0.314663 -0.0198913 0
-0.125507 -0.024258 0
0.204967 -0.244003 0
-0.188272 -0.271466 0
0.228346 -0.521581 0
-0.321853 0.200473 0
0.0652319 -0.00939581 0
-0.0142703 -0.169191 0
-0.0709451 -0.248173 0
0.160027 -0.241808 0
0.0289244 0.212422 0
0.0289748 -0.179279 0
-0.139862 0.151523 0
0.105296 -0.162597 0
0.112048 -0.0960949 0
-0.210956 -0.0136665 0
0.0904876 -0.0546934 0
0.0715155 -0.0141599 0
-0.22611 -0.154607 0
0.0809479 -0.225647 0
0.207702 -0.240044 0
-0.0932421 -0.205641 0
-0.0581958 -0.105354 0
0.0599558 -0.051581 0
-0.091536 -0.0444735 0
-0.0647032 -0.22993 0
0.102883 -0.263514 0
0.0541318 -0.148916 0
-0.0595677 -0.179179 0
-0.0334957 -0.218826 0
0.00897404 -0.149594 0
-0.00858818 -0.149235 0
-0.00802597 -0.232999 0
0.00317871 -0.220444 0
-0.00321307 -0.181577 0
0.00471993 -0.219642 0
-0.00579892 -0.231437 0
-0.0323387 -0.214374 0
-0.0127046 -0.22867 0
0.0116805 -0.247085 0
-0.00682497 -0.267903 0
-0.0168668 -0.280298 0
0.000305841 -0.264805 0
-0.00243435 -0.252077 0
-0.0240909 -0.270173 0
-0.022163 -0.290808 0
0.000803198 -0.292153 0
0.00794034 -0.288379 0
-0.00668453 -0.301458 0
-0.016166 -0.322622 0
-0.0066005 -0.325705 0
0.00761229 -0.312171 0
0.0099314 -0.306103 0
0.000621752 -0.315661 0
-0.00820173 -0.331465 0
-0.0073773 -0.344333 0
-0.000245764 -0.350952 0
0.00403367 -0.354919 0
0.0024083 -0.361954 0
-0.00308783 -0.368559 0
-0.00939465 -0.372601 0
-0.0121236 -0.382042 0
-0.00943667 -0.394728 0
-0.00527476 -0.401946 0
-0.00410259 -0.40682 0
-0.0054297 -0.417833 0
-0.00658794 -0.431862 0
-0.00691166 -0.44094 0
-0.00711539 -0.444314 0
-0.00740511 -0.444973 0
-0.00728603 -0.444268 0
-0.00612418 -0.444128 0
-0.00368626 -0.445699 0
-0.00031693 -0.448787 0
0.00317336 -0.452772 0
0.00581754 -0.457559 0
0.00689274 -0.463623 0
0.00623067 -0.471383 0
0.00426547 -0.480673 0
0.00180256 -0.490777 0
-0.000361983 -0.500861 0
-0.00174724 -0.510396 0
-0.00226085 -0.519303 0
-0.00209124 -0.527789 0
-0.00152965 -0.536066 0
-0.000826542 -0.544147 0
-0.000140915 -0.551788 0
0.000454124 -0.558582 0
0.000941235 -0.564094 0
0.0013248 -0.567949 0
0.00162915 -0.570097 0
0.0528871 -0.0462315 0
-0.0403857 0.520145 0
0.148788 0.401395 0
-0.0143747 0.76951 0
-0.12045 -0.0646247 0
0.234918 -0.392762 0
0.10973 0.461159 0
-0.0740988 0.060525 0
0.323969 -0.0621625 0
-0.196065 0.550327 0
0.125663 -0.0198758 0
0.0122748 0.294114 0
-0.135169 0.267681 0
0.242954 -0.177817 0
-0.0222615 0.111136 0
-0.0418923 -0.1657 0
-0.042196 0.216122 0
0.0968851 -0.0908871 0
-0.0803204 -0.392446 0
0.0104785 0.551786 0
-0.0831447 -0.162684 0
0.0756037 -0.261765 0
0.145288 -0.22734 0
-0.0379475 -0.106505 0
-0.0699415 0.0485947 0
-0.112262 -0.019961 0
0.0176007 -0.178315 0
0.0390558 -0.39073 0
0.0486752 -0.0321985 0
-0.0640604 0.0970607 0
-0.142835 -0.202973 0
0.0880599 -0.328139 0
0.130774 -0.101159 0
-0.0844831 -0.0519577 0
-0.0807255 -0.219747 0
0.0560047 -0.137294 0
0.0402861 -0.152814 0
-0.0227879 -0.264808 0
-0.0432866 -0.150052 0
-0.0210775 -0.144744 0
0.0230382 -0.227748 0
0.0114953 -0.223054 0
-0.0181021 -0.187083 0
-0.0135976 -0.173962 0
-0.0029232 -0.208359 0
-0.00134196 -0.241207 0
-0.00674918 -0.243076 0
-0.00529773 -0.229276 0
-0.00589713 -0.230893 0
-0.0180435 -0.268842 0
-0.0158877 -0.284413 0
-0.000526812 -0.254245 0
-0.00170729 -0.248383 0
-0.0156951 -0.279677 0
-0.0169414 -0.2971 0
-0.00510836 -0.290347 0
0.00058694 -0.28872 0
-0.00559452 -0.303342 0
-0.0108722 -0.319345 0
-0.00616382 -0.320084 0
0.00256945 -0.309691 0
0.00576337 -0.307291 0
0.00211679 -0.320235 0
-0.00308793 -0.335842 0
-0.00429399 -0.344458 0
-0.000498965 -0.349161 0
0.003045 -0.354675 0
0.0014556 -0.362472 0
-0.00392232 -0.368483 0
-0.0090786 -0.372912 0
-0.0112261 -0.383349 0
-0.00954353 -0.395826 0
-0.0061853 -0.402086 0
-0.00456583 -0.406164 0
-0.00526254 -0.416549 0
-0.00642549 -0.43051 0
-0.00704331 -0.439927 0
-0.00737123 -0.443658 0
-0.00759765 -0.444698 0
-0.00735115 -0.445006 0
-0.00606708 -0.445989 0
-0.00351985 -0.448143 0
-6.78001e-05 -0.450944 0
0.00343947 -0.453971 0
0.00600122 -0.457639 0
0.00691711 -0.462888 0
0.00610194 -0.470332 0
0.00406823 -0.479745 0
0.00163324 -0.490211 0
-0.000452777 -0.50069 0
-0.00176345 -0.510528 0
-0.00223772 -0.519611 0
-0.00206717 -0.528176 0
-0.00152745 -0.536482 0
-0.000847572 -0.544576 0
-0.000171043 -0.552235 0
0.000433096 -0.55906 0
0.000943926 -0.564611 0
0.00136002 -0.568508 0
0.00170385 -0.570694 0
0.0558393 -0.0777212 0
0.0225358 -0.12785 0
0.0835443 -0.237906 0
-0.14795 -0.406504 0
-0.262424 -0.555604 0
0.0478664 0.00196081 0
-0.244511 -0.400472 0
0.404852 -0.21999 0
0.109327 -0.56891 0
0.00803737 -0.107586 0
0.282966 -0.23699 0
-0.0138041 0.318294 0
-0.1577 -0.387301 0
0.0425573 0.506735 0