<?xml version='1.0' encoding='UTF-8'?>
<VTKFile byte_order='LittleEndian' version='0.1' type = 'UnstructuredGrid'>
<UnstructuredGrid>
<FieldData>
<DataArray type='Float64' Name='Time' NumberOfComponents='1' NumberOfTuples='1' format='ascii'>
4.401
</DataArray>
</FieldData>
<Piece NumberOfCells='808' NumberOfPoints='808'>
<Points>
<DataArray NumberOfComponents='3' type='Float64' Name='position' format='ascii'>
-0.00201484 -0.00174893 0
-0.0019206 0.0252734 0
-0.00945814 0.0488245 0
-0.0071515 0.0874482 0
-0.00751351 0.0950629 0
-0.00013276 0.125316 0
-0.00658339 0.151486 0
-0.00515465 0.176955 0
0.0250193 -0.000901088 0
0.0470947 -0.00647572 0
0.0746093 -0.00243694 0
0.0971831 -0.00167079 0
0.124029 -0.00233451 0
0.154005 -0.00645323 0
0.175279 -0.00815508 0
0.200814 -0.0139207 0
0.20712 -0.0105229 0
0.233868 -0.0104158 0
0.251653 -0.026147 0
0.296709 -0.0299744 0
0.314648 -0.0435058 0
0.336617 0.000616382 0
0.344015 -0.396238 0
0.38062 -0.398966 0
0.428842 -0.366845 0
0.432057 -0.391361 0
0.441475 -0.42782 0
0.480966 -0.411223 0
0.498251 -0.404051 0
0.549295 -0.436432 0
0.56425 -0.465564 0
0.597459 -0.457709 0
0.623161 -0.462557 0
0.644336 -0.46217 0
0.681499 -0.512483 0
0.666324 -0.588092 0
0.720923 -0.565506 0
0.769274 -0.577624 0
0.794731 -0.61133 0
0.818202 -0.622217 0
0.840587 -0.634976 0
0.848717 -0.627017 0
0.864774 -0.631896 0
0.874088 -0.785176 0
0.92466 -0.807368 0
0.924911 -0.771954 0
0.955533 -0.829055 0
0.966283 -0.81949 0
1.02546 -0.853777 0
1.04935 -0.845259 0
1.07436 -0.878902 0
1.08125 -0.867599 0
1.10084 -0.916674 0
1.13433 -0.899686 0
1.191 -0.936322 0
1.21937 -0.975707 0
1.22526 -1.02092 0
1.26426 -1.03756 0
1.27701 -1.02254 0
1.32284 -1.03158 0
1.33782 -1.06065 0
1.35882 -1.06635 0
1.40008 -1.08532 0
1.41559 -1.10018 0
1.43834 -1.11012 0
1.46402 -1.14155 0
1.45228 -1.1498 0
1.48113 -1.15866 0
1.52086 -1.19171 0
1.56336 -1.19881 0
1.57376 -1.21994 0
1.59737 -1.22981 0
1.63041 -1.23691 0
1.65178 -1.24795 0
1.67387 -1.27225 0
1.7118 -1.28317 0
1.72193 -1.28112 0
1.75257 -1.2935 0
1.78096 -1.30351 0
1.79133 -1.30942 0
1.82094 -1.32896 0
1.85144 -1.33911 0
1.87421 -1.33781 0
1.88935 -1.34093 0
1.90792 -1.35635 0
1.93923 -1.37269 0
1.97154 -1.3785 0
1.99056 -1.37879 0
2.00515 -1.3829 0
2.03003 -1.39485 0
2.06229 -1.40933 0
2.08969 -1.41657 0
2.1103 -1.41559 0
2.13101 -1.4156 0
2.15659 -1.42423 0
2.18518 -1.43562 0
2.21228 -1.44015 0
2.23682 -1.43962 0
2.25915 -1.44138 0
2.28103 -1.44797 0
2.30562 -1.45471 0
2.33384 -1.45851 0
2.36237 -1.459 0
2.3866 -1.4584 0
2.40778 -1.4585 0
2.4309 -1.45987 0
2.45747 -1.46235 0
2.48517 -1.46465 0
0.00333288 0.00670104 0
0.0569823 -0.00797061 0
0.0853546 0.0122675 0
0.113258 0.0103798 0
0.127959 0.0189829 0
0.137388 0.00453834 0
0.16159 0.00092777 0
0.177141 0.00434847 0
0.202736 0.0236981 0
0.248533 0.00600136 0
0.262451 -0.0113284 0
0.28482 -0.0144769 0
0.319346 -0.0150363 0
0.354223 -0.00308024 0
0.326181 -0.381719 0
0.357783 -0.389827 0
0.411865 -0.361885 0
0.438259 -0.346705 0
0.481953 -0.333635 0
0.497944 -0.370136 0
0.521967 -0.392697 0
0.539018 -0.386439 0
0.576203 -0.390571 0
0.596477 -0.41912 0
0.608356 -0.460658 0
0.651702 -0.484493 0
0.675796 -0.491393 0
0.69692 -0.515809 0
0.735001 -0.529648 0
0.772468 -0.558828 0
0.788739 -0.567785 0
0.806529 -0.587583 0
0.821497 -0.572399 0
0.849959 -0.639364 0
0.865485 -0.642833 0
0.894636 -0.630435 0
0.922423 -0.644863 0
0.920812 -0.760399 0
0.948176 -0.748405 0
0.979358 -0.785451 0
0.989537 -0.810343 0
1.01216 -0.832215 0
1.05887 -0.850758 0
1.08639 -0.844095 0
1.13437 -0.870057 0
1.14834 -0.878573 0
1.18371 -0.921995 0
1.22225 -0.956811 0
1.26479 -0.992772 0
1.27523 -1.0001 0
1.28531 -1.01218 0
1.31627 -1.00538 0
1.3191 -1.02079 0
1.36098 -1.04394 0
1.39623 -1.05131 0
1.42317 -1.0704 0
1.42458 -1.08077 0
1.46065 -1.09939 0
1.47846 -1.14059 0
1.48859 -1.14308 0
1.52949 -1.15545 0
1.5634 -1.17068 0
1.57657 -1.19819 0
1.60407 -1.21092 0
1.61373 -1.20647 0
1.65648 -1.2289 0
1.69182 -1.24357 0
1.69874 -1.25444 0
1.72627 -1.26411 0
1.75779 -1.26549 0
1.77244 -1.27138 0
1.7955 -1.29078 0
1.82296 -1.30485 0
1.84775 -1.30803 0
1.8721 -1.31008 0
1.89144 -1.31874 0
1.91029 -1.33308 0
1.93852 -1.34509 0
1.96842 -1.34963 0
1.98938 -1.3524 0
2.00785 -1.35967 0
2.03242 -1.3719 0
2.06111 -1.38392 0
2.08755 -1.38835 0
2.10956 -1.3883 0
2.13193 -1.39252 0
2.15791 -1.40142 0
2.18558 -1.41107 0
2.21148 -1.41417 0
2.2354 -1.41446 0
2.25879 -1.4166 0
2.28209 -1.42254 0
2.30686 -1.43003 0
2.33388 -1.43412 0
2.36105 -1.43378 0
2.3857 -1.43244 0
2.40835 -1.43294 0
2.43196 -1.43523 0
2.45774 -1.43809 0
2.4843 -1.44027 0
0.0342215 0.0665671 0
0.0609614 0.0391004 0
0.0879602 0.0399836 0
0.102896 0.0398321 0
0.115148 0.0297782 0
0.13994 0.0158418 0
0.171232 0.0244531 0
0.184435 0.0186092 0
0.21182 0.0346207 0
0.262734 0.0227223 0
0.270907 0.0164611 0
0.289785 -0.00428965 0
0.321615 0.0196759 0
0.344052 0.0163003 0
0.364569 0.00128705 0
0.370301 -0.36985 0
0.40252 -0.3467 0
0.415507 -0.342873 0
0.475227 -0.351829 0
0.519516 -0.352493 0
0.540442 -0.347752 0
0.548717 -0.35971 0
0.579885 -0.356713 0
0.626076 -0.380719 0
0.633501 -0.41992 0
0.658755 -0.458452 0
0.683651 -0.469341 0
0.673212 -0.476381 0
0.703907 -0.487775 0
0.752 -0.541802 0
0.782715 -0.551012 0
0.809563 -0.566391 0
0.838822 -0.58374 0
0.849591 -0.607299 0
0.890007 -0.621571 0
0.89062 -0.600305 0
0.932 -0.64774 0
0.984904 -0.645706 0
0.965163 -0.705186 0
0.990958 -0.741553 0
0.984978 -0.754801 0
1.01672 -0.79967 0
1.06947 -0.815552 0
1.12087 -0.830217 0
1.10796 -0.840652 0
1.1403 -0.843545 0
1.19125 -0.866413 0
1.20168 -0.907455 0
1.24585 -0.960632 0
1.26963 -0.970954 0
1.30054 -0.969131 0
1.31324 -0.98681 0
1.33982 -0.989869 0
1.35568 -0.998586 0
1.37594 -1.01687 0
1.41533 -1.03684 0
1.43005 -1.05585 0
1.4577 -1.07976 0
1.46187 -1.11039 0
1.50095 -1.13053 0
1.55122 -1.1313 0
1.55388 -1.14768 0
1.5779 -1.15417 0
1.60032 -1.17452 0
1.62024 -1.19727 0
1.65607 -1.1918 0
1.68339 -1.21701 0
1.71253 -1.23552 0
1.7226 -1.23531 0
1.75365 -1.23681 0
1.77846 -1.24891 0
1.79513 -1.26948 0
1.82032 -1.27984 0
1.84871 -1.27823 0
1.87139 -1.28379 0
1.89109 -1.29671 0
1.91188 -1.308 0
1.93796 -1.31631 0
1.96628 -1.32274 0
1.98939 -1.32832 0
2.00941 -1.33682 0
2.03338 -1.34815 0
2.06084 -1.35737 0
2.08625 -1.36015 0
2.10872 -1.36261 0
2.13245 -1.36956 0
2.15915 -1.37849 0
2.18593 -1.38544 0
2.21057 -1.38838 0
2.23435 -1.38948 0
2.25854 -1.392 0
2.283 -1.39814 0
2.30782 -1.40496 0
2.33368 -1.40877 0
2.36006 -1.40862 0
2.3852 -1.4073 0
2.40886 -1.40802 0
2.43278 -1.41071 0
2.45794 -1.41356 0
2.48365 -1.41541 0
0.0274184 0.0755541 0
0.0516977 0.0877878 0
0.0733451 0.0882239 0
0.0982398 0.0550204 0
0.120526 0.0620266 0
0.143306 0.04456 0
0.16525 0.0387343 0
0.189205 0.0303602 0
0.224071 0.0407647 0
0.254525 0.0469068 0
0.273045 0.0447106 0
0.297472 0.023437 0
0.326955 0.0333328 0
0.357854 0.026349 0
0.371554 0.0293864 0
0.391253 -0.348701 0
0.410272 -0.317658 0
0.439905 -0.31187 0
0.44535 -0.322803 0
0.507784 -0.305531 0
0.522292 -0.328915 0
0.561668 -0.334692 0
0.582423 -0.342507 0
0.621951 -0.343788 0
0.6121 -0.373783 0
0.654407 -0.430695 0
0.685532 -0.437931 0
0.68575 -0.454243 0
0.714511 -0.496939 0
0.747287 -0.515459 0
0.781511 -0.519933 0
0.807732 -0.549415 0
0.835325 -0.559275 0
0.854296 -0.574673 0
0.866459 -0.589537 0
0.890102 -0.588204 0
0.912599 -0.592746 0
0.946552 -0.646305 0
0.971602 -0.68307 0
1.00896 -0.716906 0
1.0078 -0.731623 0
1.03079 -0.768667 0
1.06453 -0.785166 0
1.10913 -0.804792 0
1.13311 -0.830067 0
1.14218 -0.824062 0
1.19102 -0.846165 0
1.21124 -0.872812 0
1.2188 -0.896749 0
1.25836 -0.919563 0
1.28856 -0.934689 0
1.32471 -0.949538 0
1.33477 -0.959137 0
1.36623 -0.984084 0
1.3865 -1.00067 0
1.40209 -0.999384 0
1.42791 -1.02328 0
1.46043 -1.05118 0
1.48019 -1.08904 0
1.50666 -1.09448 0
1.51495 -1.1111 0
1.54906 -1.12043 0
1.58963 -1.12853 0
1.60008 -1.14757 0
1.6139 -1.16933 0
1.65697 -1.16912 0
1.69135 -1.18391 0
1.70719 -1.21482 0
1.72528 -1.21357 0
1.75183 -1.20483 0
1.77899 -1.22803 0
1.79804 -1.24892 0
1.8173 -1.24934 0
1.84651 -1.25125 0
1.87359 -1.25897 0
1.89138 -1.27071 0
1.91141 -1.28337 0
1.93839 -1.29031 0
1.965 -1.29494 0
1.98855 -1.30465 0
2.011 -1.3143 0
2.03411 -1.32302 0
2.05975 -1.33041 0
2.08569 -1.33333 0
2.10894 -1.33698 0
2.13262 -1.34648 0
2.15964 -1.35549 0
2.18639 -1.3598 0
2.20994 -1.36157 0
2.23328 -1.36487 0
2.25847 -1.3686 0
2.28383 -1.37374 0
2.30841 -1.37952 0
2.33334 -1.38296 0
2.35925 -1.38332 0
2.38498 -1.3826 0
2.40947 -1.3836 0
2.43347 -1.38618 0
2.45803 -1.38864 0
2.48306 -1.39008 0
0.0278594 0.0982029 0
0.0491658 0.101487 0
0.0727665 0.0996073 0
0.0933879 0.0734847 0
0.127168 0.0918235 0
0.156559 0.066559 0
0.172442 0.0619237 0
0.20689 0.0584332 0
0.223659 0.0544144 0
0.247658 0.0599327 0
0.283224 0.0678529 0
0.314855 0.0652996 0
0.341882 0.0401256 0
0.352313 0.0540248 0
0.367434 0.054126 0
0.41207 0.060978 0
0.409754 -0.296292 0
0.429162 -0.295508 0
0.452215 -0.305676 0
0.47261 -0.275245 0
0.511485 -0.281163 0
0.557039 -0.296571 0
0.578032 -0.30587 0
0.622973 -0.321493 0
0.619099 -0.36459 0
0.658748 -0.370127 0
0.688226 -0.409852 0
0.708597 -0.404226 0
0.712293 -0.452921 0
0.746329 -0.490498 0
0.775751 -0.497967 0
0.817106 -0.511707 0
0.818606 -0.527244 0
0.855043 -0.539816 0
0.878932 -0.571962 0
0.897676 -0.576787 0
0.924325 -0.576639 0
0.95246 -0.62593 0
0.963281 -0.670917 0
1.01089 -0.682769 0
1.01762 -0.707615 0
1.0477 -0.727454 0
1.06084 -0.759713 0
1.0983 -0.787976 0
1.1204 -0.774928 0
1.17 -0.801351 0
1.19598 -0.812474 0
1.22636 -0.851161 0
1.22099 -0.839042 0
1.2519 -0.874597 0
1.30485 -0.918295 0
1.3218 -0.906468 0
1.34132 -0.927291 0
1.35818 -0.969462 0
1.38388 -0.977298 0
1.40943 -0.982669 0
1.42673 -1.00569 0
1.46324 -1.03017 0
1.4728 -1.05529 0
1.50565 -1.07587 0
1.53341 -1.08627 0
1.55127 -1.09646 0
1.57809 -1.10034 0
1.60226 -1.12191 0
1.61976 -1.14118 0
1.65458 -1.14685 0
1.68759 -1.16315 0
1.70676 -1.18246 0
1.72789 -1.18755 0
1.75421 -1.18775 0
1.77713 -1.20203 0
1.79706 -1.22134 0
1.81888 -1.22441 0
1.84476 -1.22244 0
1.87133 -1.23347 0
1.89339 -1.24768 0
1.9133 -1.25747 0
1.93723 -1.26359 0
1.96366 -1.26989 0
1.98856 -1.27916 0
2.01174 -1.29041 0
2.03445 -1.29847 0
2.05906 -1.30307 0
2.08497 -1.30711 0
2.10949 -1.31344 0
2.13367 -1.32317 0
2.15955 -1.33036 0
2.18563 -1.33396 0
2.2095 -1.33623 0
2.23316 -1.3402 0
2.25874 -1.34515 0
2.28433 -1.34983 0
2.30855 -1.35394 0
2.33285 -1.35658 0
2.35863 -1.35763 0
2.38497 -1.35819 0
2.41013 -1.35957 0
2.43409 -1.36163 0
2.45801 -1.36343 0
2.48243 -1.36447 0
0.0144413 0.124906 0
0.0406839 0.113116 0
0.0830318 0.111463 0
0.129298 0.133505 0
0.110696 0.111259 0
0.146856 0.10491 0
0.183652 0.098458 0
0.200033 0.0837694 0
0.207827 0.075709 0
0.270625 0.092542 0
0.287191 0.0585885 0
0.298243 0.0761683 0
0.326046 0.067179 0
0.354619 0.0709131 0
0.372782 0.0734199 0
0.405423 0.0779565 0
0.416893 0.0712832 0
0.444266 -0.283582 0
0.475513 -0.244696 0
0.480912 -0.26226 0
0.524371 -0.244946 0
0.526233 -0.265848 0
0.568659 -0.288707 0
0.599655 -0.307546 0
0.636629 -0.318612 0
0.662633 -0.332487 0
0.694426 -0.359921 0
0.692152 -0.388612 0
0.723197 -0.409933 0
0.745599 -0.450914 0
0.779054 -0.483097 0
0.816122 -0.49284 0
0.836049 -0.51453 0
0.861595 -0.527319 0
0.883498 -0.562981 0
0.894099 -0.541683 0
0.937069 -0.569301 0
0.958783 -0.583176 0
0.975033 -0.633922 0
1.00834 -0.64351 0
1.03739 -0.672639 0
1.06677 -0.716183 0
1.0722 -0.724578 0
1.11032 -0.758249 0
1.13253 -0.764556 0
1.15778 -0.765472 0
1.21197 -0.77181 0
1.21782 -0.799835 0
1.23791 -0.825308 0
1.26206 -0.858547 0
1.27802 -0.885905 0
1.3227 -0.886857 0
1.34936 -0.915747 0
1.35978 -0.935972 0
1.38442 -0.966433 0
1.4174 -0.956842 0
1.44307 -0.979812 0
1.46454 -1.0169 0
1.47231 -1.02596 0
1.51384 -1.04137 0
1.52751 -1.0599 0
1.55528 -1.07128 0
1.5751 -1.07228 0
1.60777 -1.10459 0
1.63118 -1.11716 0
1.64811 -1.11966 0
1.68234 -1.13938 0
1.71039 -1.15548 0
1.7291 -1.15816 0
1.75118 -1.16486 0
1.77584 -1.18076 0
1.79816 -1.19277 0
1.82028 -1.19417 0
1.84405 -1.19772 0
1.86896 -1.2106 0
1.89398 -1.22312 0
1.91613 -1.23094 0
1.93666 -1.23698 0
1.96109 -1.24478 0
1.98858 -1.25535 0
2.01313 -1.26511 0
2.03468 -1.27141 0
2.0583 -1.27721 0
2.08446 -1.28347 0
2.11004 -1.29038 0
2.1347 -1.29827 0
2.15956 -1.30439 0
2.18424 -1.30759 0
2.20864 -1.3111 0
2.23385 -1.31666 0
2.25979 -1.32227 0
2.28459 -1.3256 0
2.30796 -1.32793 0
2.33206 -1.32986 0
2.35826 -1.33186 0
2.38527 -1.33395 0
2.4109 -1.33572 0
2.43472 -1.33709 0
2.45797 -1.33815 0
2.48182 -1.33887 0
0.0195672 0.149949 0
0.0435299 0.133863 0
0.078137 0.147809 0
0.114037 0.159646 0
0.123402 0.14432 0
0.14436 0.120892 0
0.167048 0.125956 0
0.196009 0.136766 0
0.218133 0.112809 0
0.253749 0.122155 0
0.279078 0.103178 0
0.291997 0.11088 0
0.324087 0.0853229 0
0.366226 0.0856905 0
0.39303 0.0769884 0
0.415621 0.0923048 0
0.620171 -0.00189977 0
0.462041 -0.151129 0
0.494603 -0.166148 0
0.496862 -0.198538 0
0.548567 -0.183933 0
0.520508 -0.254467 0
0.552337 -0.257749 0
0.602477 -0.273831 0
0.629415 -0.260757 0
0.673665 -0.344983 0
0.690815 -0.342674 0
0.70934 -0.367065 0
0.700616 -0.380941 0
0.737269 -0.404418 0
0.773194 -0.451018 0
0.793763 -0.449927 0
0.852512 -0.494473 0
0.87067 -0.523118 0
0.88832 -0.524118 0
0.921142 -0.536633 0
0.931209 -0.525715 0
0.963319 -0.534134 0
0.970048 -0.61195 0
0.985189 -0.612915 0
1.02624 -0.647441 0
1.05483 -0.665649 0
1.07228 -0.687372 0
1.1055 -0.732926 0
1.14747 -0.744121 0
1.16168 -0.754509 0
1.19682 -0.746761 0
1.24151 -0.765892 0
1.24565 -0.808986 0
1.26152 -0.836952 0
1.2832 -0.859216 0
1.31214 -0.854242 0
1.33511 -0.881355 0
1.36075 -0.908072 0
1.38831 -0.926497 0
1.41281 -0.939905 0
1.43623 -0.953285 0
1.45239 -1.00383 0
1.47753 -1.00853 0
1.51281 -1.00696 0
1.52561 -1.0258 0
1.54313 -1.03825 0
1.57602 -1.06195 0
1.61197 -1.06725 0
1.64083 -1.08683 0
1.64808 -1.09508 0
1.6812 -1.12113 0
1.70973 -1.12731 0
1.7279 -1.12558 0
1.74777 -1.14239 0
1.77336 -1.16175 0
1.80039 -1.16218 0
1.82336 -1.1625 0
1.84285 -1.17476 0
1.8665 -1.18919 0
1.89463 -1.19861 0
1.91844 -1.20312 0
1.93644 -1.20932 0
1.95853 -1.22088 0
1.98767 -1.23263 0
2.01483 -1.23844 0
2.03593 -1.24376 0
2.0573 -1.25199 0
2.08337 -1.26084 0
2.11083 -1.26731 0
2.13606 -1.27267 0
2.15912 -1.27689 0
2.18254 -1.28189 0
2.20804 -1.28737 0
2.23496 -1.29358 0
2.26102 -1.29824 0
2.28468 -1.30105 0
2.30704 -1.30199 0
2.33101 -1.30317 0
2.35792 -1.30635 0
2.38584 -1.30991 0
2.41194 -1.31186 0
2.43548 -1.31243 0
2.45793 -1.31285 0
2.4812 -1.31356 0
0.000595897 0.158447 0
0.0594277 0.176632 0
0.0739754 0.195354 0
0.104485 0.163346 0
0.124997 0.158155 0
0.131708 0.166585 0
0.158868 0.149436 0
0.180116 0.162069 0
0.228089 0.128496 0
0.252158 0.144701 0
0.284652 0.157614 0
0.301973 0.144725 0
0.312269 0.11861 0
0.364354 0.106753 0
0.37937 0.111833 0
0.414141 0.13574 0
0.443223 0.14523 0
0.454602 -0.125026 0
0.508623 -0.158467 0
0.51026 -0.125855 0
0.538257 -0.0984016 0
0.56256 -0.123427 0
0.543041 -0.269111 0
0.594675 -0.258554 0
0.653715 -0.250652 0
0.664365 -0.312654 0
0.688726 -0.295022 0
0.71566 -0.308383 0
0.732544 -0.331414 0
0.78724 -0.333435 0
0.769676 -0.40679 0
0.805801 -0.422602 0
0.84182 -0.453662 0
0.878414 -0.48096 0
0.89601 -0.484709 0
0.904964 -0.514793 0
0.936171 -0.499179 0
0.97098 -0.520245 0
1.12863 -0.489797 0
1.00426 -0.613157 0
1.02596 -0.614402 0
1.05135 -0.640528 0
1.06449 -0.65404 0
1.09221 -0.682169 0
1.13794 -0.696828 0
1.1581 -0.716668 0
1.19791 -0.709766 0
1.22391 -0.707313 0
1.23588 -0.801866 0
1.26205 -0.816783 0
1.27957 -0.816606 0
1.32982 -0.828955 0
1.34918 -0.839462 0
1.37175 -0.872709 0
1.36553 -0.881232 0
1.42171 -0.915041 0
1.43693 -0.932281 0
1.44096 -0.968176 0
1.47104 -0.979609 0
1.50538 -0.97634 0
1.53216 -1.01587 0
1.54607 -1.02845 0
1.58645 -1.04768 0
1.6199 -1.04159 0
1.63641 -1.04672 0
1.65379 -1.08253 0
1.67894 -1.10042 0
1.70737 -1.09041 0
1.72727 -1.09717 0
1.74293 -1.12474 0
1.77065 -1.13879 0
1.80466 -1.13403 0
1.82673 -1.13274 0
1.84026 -1.14972 0
1.86385 -1.16966 0
1.89648 -1.1752 0
1.9208 -1.17358 0
1.93536 -1.18149 0
1.9555 -1.19797 0
1.98685 -1.20946 0
2.01718 -1.21269 0
2.03752 -1.21612 0
2.05588 -1.2259 0
2.08171 -1.23874 0
2.11195 -1.24547 0
2.1378 -1.24602 0
2.15846 -1.2485 0
2.18056 -1.25652 0
2.2074 -1.26484 0
2.23626 -1.2701 0
2.26245 -1.27344 0
2.28489 -1.27539 0
2.30612 -1.27597 0
2.32958 -1.27717 0
2.35734 -1.2814 0
2.3867 -1.28617 0
2.41338 -1.28783 0
2.43631 -1.28723 0
2.45772 -1.28722 0
2.48042 -1.28841 0
</DataArray>
</Points>
<PointData>
<DataArray NumberOfComponents='1' type='Int32' Name='Particle Type' format='ascii'>
0
0
0
0
0
0
0
0
0
0
0
0
0
0
0
0
0
0
0
0
0
0
1
1
1
1
1
1
1
1
1
1
1
1
1
1
1
1
1
1
1
1
1
1
1
1
1
1
1
1
1
1
1
1
1
1
1
1
1
1
1
1
1
1
1
1
1
1
1
1
1
1
1
1
1
1
1
1
1
1
1
1
1
1
1
1
1
1
1
1
1
1
1
1
1
1
1
1
1
1
1
1
1
1
1
1
1
1
1
1
1
1
1
1
1
1
1
1
1
1
1
1
1
1
1
1
1
1
1
1
1
1
1
1
1
1
1
1
1
1
1
1
1
1
1
1
1
1
1
1
1
1
1
1
1
1
1
1
1
1
1
1
1
1
1
1
1
1
1
1
1
1
1
1
1
1
1
1
1
1
1
1
1
1
1
1
1
1
1
1
1
1
1
1
1
1
1
1
1
1
1
1
1
1
1
1
1
1
1
1
1
1
1
1
1
1
1
1
1
1
1
1
1
1
1
1
1
1
1
1
1
1
1
1
1
1
1
1
1
1
1
1
1
1
1
1
1
1
1
1
1
1
1
1
1
1
1
1
1
1
1
1
1
1
1
1
1
1
1
1
1
1
1
1
1
1
1
1
1
1
1
1
1
1
1
1
1
1
1
1
1
1
1
1
1
1
1
1
1
1
1
1
1
1
1
1
1
1
1
1
1
1
1
1
1
1
1
1
1
1
1
1
1
1
1
1
1
1
1
1
1
1
1
1
1
1
1
1
1
1
1
1
1
1
1
1
1
1
1
1
1
1
1
1
1
1
1
1
1
1
1
1
1
1
1
1
1
1
1
1
1
1
1
1
1
1
1
1
1
1
1
1
1
1
1
1
1
1
1
1
1
1
1
1
1
1
1
1
1
1
1
1
1
1
1
1
1
1
1
1
1
1
1
1
1
1
1
1
1
1
1
1
1
1
1
1
1
1
1
1
1
1
1
1
1
1
1
1
1
1
1
1
1
1
1
1
1
1
1
1
1
1
1
1
1
1
1
1
1
1
1
1
1
1
1
1
1
1
1
1
1
1
1
1
1
1
1
1
1
1
1
1
1
1
1
1
1
1
1
1
1
1
1
1
1
1
1
1
1
1
1
1
1
1
1
1
1
1
1
1
1
1
1
1
1
1
1
1
1
1
1
1
1
1
1
1
1
1
1
1
1
1
1
1
1
1
1
1
1
1
1
1
1
1
1
1
1
1
1
1
1
1
1
1
1
1
1
1
1
1
1
1
1
1
1
1
1
1
1
1
1
1
1
1
1
1
1
1
1
1
1
1
1
1
1
1
1
1
1
1
1
1
1
1
1
1
1
1
1
1
1
1
1
1
1
1
1
1
1
1
1
1
1
1
1
1
1
1
1
1
1
1
1
1
1
1
1
1
1
1
1
1
1
1
1
1
1
1
1
1
1
1
1
1
1
1
1
1
1
1
1
1
1
1
1
1
1
1
1
1
1
1
1
1
1
1
1
1
1
1
1
1
1
1
1
1
1
1
1
1
1
1
1
1
1
1
1
1
1
1
1
1
1
1
1
1
1
1
1
1
1
1
1
1
1
1
1
1
1
1
1
1
1
1
1
1
1
1
1
1
1
1
1
1
1
1
1
1
1
1
1
1
1
1
1
1
1
1
1
1
1
1
1
1
1
1
1
1
1
1
1
1
1
1
1
1
1
1
1
1
1
1
1
1
1
1
1
1
1
1
1
1
1
1
1
1
1
1
1
1
1
1
1
1
1
1
1
1
1
1
1
1
1
1
1
1
1
1
1
1
1
1
1
1
1
1
1
1
</DataArray>
<DataArray NumberOfComponents='3' type='Float64' Name='Velocity' format='ascii'>
-0.735997 -0.2641 0
-0.518009 0.0842582 0
-1.07722 -0.0829008 0
-0.620877 0.952867 0
-0.788915 -0.18557 0
0.340091 0.407734 0
-1.28465 -0.0832856 0
-0.772271 0.333739 0
0.107389 -0.408196 0
-0.444765 -1.12033 0
0.136195 -0.516678 0
-0.245806 -0.396407 0
-0.409616 -0.181202 0
0.376891 -0.837306 0
-0.146835 -0.834983 0
0.061625 -0.975356 0
-0.649414 -0.354877 0
-0.904178 -0.603664 0
-0.855123 -0.261107 0
0.918981 -0.937343 0
0.0245939 -0.7824 0
0.224728 0.16518 0
0.332552 -0.253932 0
0.0666244 -0.288878 0
0.422176 -0.201769 0
0.336504 -0.79023 0
-0.174411 -0.0677644 0
0.198164 -1.38337 0
-0.232059 -1.03349 0
-0.261384 -1.20778 0
-0.143984 0.641924 0
0.286742 -0.0155444 0
0.0484314 0.0454499 0
1.02824 -0.793421 0
0.00281117 0.480587 0
-0.526608 -0.814229 0
-0.294753 -1.0551 0
-0.28829 -1.46835 0
-0.510739 0.0453304 0
0.0687481 -0.898098 0
0.123296 -0.560473 0
0.479714 -0.0606497 0
0.970237 -0.622198 0
-0.215449 -0.0280144 0
0.346173 0.0247826 0
0.401979 -0.59953 0
-0.365253 -0.290008 0
0.117862 -0.335686 0
0.0643432 -0.158178 0
-0.484223 -0.564834 0
0.613016 -1.32551 0
-0.827202 -0.501069 0
0.528413 -0.169916 0
-0.166299 0.139892 0
0.477267 -0.680619 0
0.419313 0.524024 0
0.852443 0.624341 0
0.169516 -0.657214 0
-0.802658 -1.17908 0
1.65168 0.348868 0
-0.161194 0.0472276 0
-1.09321 -1.15667 0
0.0034705 -0.954415 0
0.257892 -0.0802263 0
-0.265677 -0.276684 0
0.249438 -0.753162 0
0.586198 -0.24322 0
-0.409384 0.297095 0
-0.319202 -0.380295 0
0.0530492 -0.0542308 0
0.449636 -0.13722 0
-0.190377 -0.543808 0
-0.0719425 -0.504786 0
0.306583 -0.114291 0
-0.264375 -0.0537628 0
0.0541567 -0.678513 0
0.1975 -0.479427 0
-0.288104 -0.201673 0
0.42542 -0.539354 0
0.0268516 -0.100883 0
-0.252031 -0.0467651 0
-0.10966 -0.475522 0
0.198371 -0.629423 0
0.276564 -0.321606 0
-0.0507541 -0.0333499 0
-0.328288 -0.236589 0
-0.0365719 -0.560268 0
0.332296 -0.563784 0
0.184042 -0.315525 0
-0.177019 -0.0814276 0
-0.218058 -0.129611 0
0.0113943 -0.372852 0
0.158751 -0.472322 0
0.0707029 -0.279943 0
-0.0762257 -0.0640619 0
-0.103204 -0.164086 0
-0.0378688 -0.374999 0
0.0436608 -0.39846 0
0.0847248 -0.231578 0
0.033875 -0.143387 0
-0.0904117 -0.200825 0
-0.169973 -0.29572 0
-0.0930599 -0.335679 0
0.0632667 -0.303388 0
0.107572 -0.265286 0
0.0282193 -0.249389 0
-0.0638061 -0.265466 0
-0.108837 -0.298159 0
0.586901 -0.281903 0
-0.293741 -0.180212 0
0.477055 0.18536 0
-0.140241 0.414491 0
0.595021 -0.388191 0
0.42582 0.934038 0
0.873537 -0.408079 0
0.210731 -0.633107 0
-0.299638 0.0372266 0
0.163702 0.123066 0
0.391912 0.486555 0
0.0374068 0.110564 0
-0.0764812 0.127101 0
0.000491863 0.312906 0
-0.846618 -1.39955 0
-0.212532 -0.928792 0
0.376859 -0.793321 0
0.47881 -0.366534 0
-0.802724 -0.935249 0
0.211244 0.0974675 0
-0.365776 -1.05339 0
-0.601134 0.115762 0
0.298051 -1.65456 0
-0.403838 0.441862 0
0.721849 0.206348 0
0.0409428 -0.878833 0
-0.196612 0.0984751 0
-0.161803 -1.12302 0
0.397597 0.427196 0
-0.0216792 -0.906354 0
0.435319 -1.07025 0
0.0377543 -0.739987 0
0.0618297 0.630364 0
0.675598 -0.237406 0
0.141515 -0.855985 0
-0.141324 -0.418377 0
0.325016 -0.406 0
-0.877868 -1.20326 0
0.147956 -0.167391 0
0.575564 -1.25936 0
0.00525727 -0.25202 0
0.678602 0.225898 0
-0.454437 -1.27818 0
-1.08188 -0.781511 0
-0.76222 0.202837 0
0.813092 0.147338 0
-1.05655 0.0285819 0
-0.859822 0.583347 0
-1.01914 -1.24446 0
0.24689 0.178829 0
0.0266737 -0.87317 0
-0.40007 0.310683 0
0.00119739 -0.0565158 0
-0.516998 -0.192395 0
0.0516284 0.282032 0
0.728342 -0.757372 0
-0.0154645 -0.740845 0
0.0162193 -0.0278097 0
0.685096 -0.409823 0
0.186998 -0.529143 0
-0.763197 -0.385621 0
0.0076994 -0.407595 0
-0.206416 0.050576 0
0.180215 -0.920334 0
0.265902 -0.293507 0
-0.781493 -0.0616192 0
0.201639 -0.291475 0
0.626615 -0.584539 0
-0.390049 -0.380499 0
0.165598 -0.621273 0
0.234636 -0.182116 0
-0.10253 -0.00701952 0
-0.0533071 -0.33138 0
-0.0132992 -0.54281 0
0.0629893 -0.433187 0
0.207063 -0.238328 0
0.0196199 -0.156325 0
-0.22416 -0.350366 0
-0.0340301 -0.507725 0
0.208901 -0.44231 0
0.112412 -0.252111 0
-0.0924801 -0.1221 0
-0.126399 -0.229025 0
0.00438114 -0.412401 0
0.0994664 -0.381002 0
0.026271 -0.194628 0
-0.0716972 -0.105199 0
-0.0686865 -0.21756 0
0.00261795 -0.392163 0
0.036709 -0.363831 0
0.0353802 -0.251524 0
0.00638236 -0.140086 0
-0.070454 -0.168904 0
-0.1175 -0.303744 0
-0.0682373 -0.370754 0
0.031527 -0.31504 0
0.0677494 -0.240832 0
0.0170022 -0.21914 0
-0.0542015 -0.251017 0
-0.0961741 -0.30341 0
-0.279363 -0.355223 0
-0.119418 0.641874 0
0.0774533 0.0745151 0
-0.154412 -0.557999 0
0.960761 -0.0346254 0
0.00541307 -0.700761 0
-0.920475 -0.18044 0
-0.448599 -0.729357 0
-0.444518 0.190175 0
0.485162 -0.157244 0
0.440293 -0.601258 0
-0.302562 0.824224 0
-0.11041 -0.454257 0
-0.288402 0.488296 0
0.526086 0.0667279 0
-0.830342 -0.88238 0
-0.388862 -0.568879 0
0.0519427 -0.880873 0
0.581905 -1.15847 0
0.292498 -0.936031 0
-0.137648 -0.71611 0
1.01458 -0.557329 0
0.10563 -0.645979 0
-0.806671 0.0548129 0
0.135333 -0.324073 0
-0.185991 0.613885 0
-0.943082 -1.18972 0
1.35444 -0.239978 0
0.0970292 -0.190666 0
0.532295 -0.168774 0
-0.307589 -0.822138 0
-0.942532 -1.14011 0
0.385216 -0.940727 0
-1.29967 -0.345679 0
0.115063 -0.254706 0
0.0216841 -0.464938 0
0.449254 -0.052082 0
0.0888957 -0.249405 0
-0.109909 -0.358047 0
0.993601 0.701213 0
-0.113093 0.0245891 0
0.222663 -0.0466 0
-0.116035 -0.540701 0
-0.200211 -0.767865 0
0.357905 -0.864797 0
-0.654925 -0.662 0
0.000547219 -1.50281 0
-0.228739 0.373534 0
0.388693 -1.08736 0
-0.187319 -0.765093 0
-0.192094 -0.696932 0
-0.0330191 -1.50564 0
-0.469442 -0.927744 0
0.54347 -0.543328 0
-0.397246 -0.290689 0
0.114939 -0.0649922 0
0.112735 -0.555618 0
0.236729 -0.654676 0
-0.21161 0.392608 0
-0.856553 -0.119069 0
0.235883 -0.502823 0
0.185991 -0.880635 0
-0.0312284 -0.41788 0
0.20577 0.269969 0
-0.156806 -0.608247 0
-0.157131 -0.501657 0
-0.186479 0.18507 0
0.176913 -0.533492 0
0.298593 -0.645356 0
-0.210556 -0.411588 0
0.179407 -0.0475039 0
0.144393 -0.0391908 0
-0.148133 -0.513509 0
-0.040952 -0.586059 0
0.12389 -0.265324 0
0.145512 -0.208832 0
0.0298941 -0.327239 0
-0.13281 -0.362115 0
-0.0660109 -0.395651 0
0.127291 -0.363374 0
0.107817 -0.245085 0
-0.0585886 -0.184982 0
-0.0857175 -0.329849 0
0.0255087 -0.394373 0
0.0624021 -0.287323 0
-0.0217795 -0.149573 0
-0.0720637 -0.170083 0
-0.0242368 -0.269621 0
0.0273154 -0.365749 0
0.0230154 -0.349174 0
-0.000260623 -0.237088 0
-0.0178249 -0.140911 0
-0.0449568 -0.185874 0
-0.0758518 -0.297619 0
-0.0586269 -0.366298 0
0.00462909 -0.313916 0
0.0379928 -0.224371 0
0.00937293 -0.200322 0
-0.0451152 -0.249107 0
-0.0848795 -0.318624 0
1.29156 0.056366 0
0.0730896 0.370999 0
-0.0547582 -0.441017 0
-0.629233 -0.211804 0
0.380733 0.303841 0
0.823768 0.653958 0
0.413502 -0.465399 0
-0.645959 -0.183118 0
0.387383 -0.0276276 0
0.165846 -0.0603205 0
-1.0923 0.0725179 0
-0.0110129 0.0753636 0
-0.864949 -0.209825 0
0.560336 0.302046 0
0.250467 0.413697 0
-0.867932 -1.5482 0
0.471532 -0.492187 0
0.137614 -0.371057 0
0.429384 -0.541599 0
-0.605081 -0.821998 0
0.905061 -0.0615998 0
-0.571364 -0.620223 0
0.937346 0.23332 0
0.475148 -0.513861 0
0.652739 -0.51429 0
-0.052192 -0.620569 0
-0.364285 -0.141396 0
0.483481 -0.291793 0
-0.192038 -0.01841 0
-0.0563716 0.307134 0
-0.849684 -0.6049 0
0.172557 0.382887 0
0.0293532 -0.343821 0
0.830468 0.228144 0
-1.48379 -1.21051 0
-0.235141 -0.107119 0
0.974952 -0.0928399 0
0.856794 -0.0874269 0
0.373287 0.678 0
-0.298201 -1.23814 0
-0.728792 0.264833 0
0.835892 0.935668 0
-0.683031 -0.59893 0
-1.19697 -0.435 0
0.198683 -0.488258 0
0.892255 -0.936013 0
-0.44886 -0.282958 0
1.19872 0.71518 0
0.0060012 -0.484696 0
-0.58255 -0.614082 0
-0.481473 -1.16638 0
0.383244 -1.17082 0
0.556607 -1.03116 0
-0.00659748 -0.430847 0
0.380049 -1.02634 0
0.260272 -0.400201 0
-0.428015 0.362523 0
0.536781 0.312832 0
0.142953 -0.818648 0
0.159638 -0.628491 0
0.14799 -0.0617502 0
-0.275866 -0.26039 0
0.0410988 -0.349449 0
0.578893 -0.0833626 0
-0.250912 -0.408032 0
-0.642871 -0.623351 0
0.0580891 0.244984 0
0.359297 -0.100205 0
0.100893 -1.06192 0
-0.113141 -0.370683 0
0.030259 0.295304 0
0.252968 -0.349319 0
0.000676961 -0.639957 0
-0.206471 -0.433713 0
0.085905 -0.307772 0
0.23388 -0.201196 0
0.00642486 -0.276899 0
-0.122624 -0.460764 0
-0.0250614 -0.338656 0
0.0569765 -0.239137 0
0.0694097 -0.282097 0
0.0125984 -0.271569 0
-0.0617676 -0.350494 0
-0.00508477 -0.390746 0
0.0558889 -0.216172 0
-0.0283317 -0.107386 0
-0.0917616 -0.224761 0
-0.00425497 -0.368603 0
0.0660003 -0.337698 0
0.0137933 -0.270595 0
-0.0388798 -0.233478 0
-0.0298868 -0.178853 0
-0.0212782 -0.205159 0
-0.0448327 -0.288403 0
-0.0578533 -0.344017 0
-0.0238091 -0.300029 0
0.0144188 -0.219729 0
0.00817418 -0.203031 0
-0.0326918 -0.254642 0
-0.072367 -0.324872 0
0.0503252 0.526527 0
-0.634551 -0.58529 0
-0.234917 -0.0450468 0
0.60463 1.30582 0
-0.199876 -0.43936 0
-0.923706 -0.0212483 0
0.0053886 0.00647573 0
-0.41612 0.138003 0
0.034033 0.0878964 0
0.978712 0.416505 0
-0.336945 -0.223677 0
-0.388827 -0.0509867 0
0.0491348 -0.198515 0
-0.222983 1.17949 0
0.189233 0.972008 0
0.146098 0.402477 0
0.205759 -1.08632 0
-0.661071 -0.86721 0
0.432791 -1.31889 0
-1.1333 -0.89073 0
0.426181 -0.537311 0
0.505799 -0.300535 0
0.965056 -0.0390183 0
0.018514 -0.909229 0
-0.879654 -0.441523 0
-0.301301 -0.861751 0
-0.0352257 0.238299 0
-0.68422 -1.49019 0
-0.331745 0.919323 0
-0.33558 0.489439 0
-0.475668 0.450429 0
-0.581578 -0.979663 0
-0.579389 0.0687255 0
0.507816 -0.368521 0
0.0256611 -0.372195 0
-0.216989 0.529258 0
0.635304 0.115659 0
-0.290792 -0.629612 0
0.152175 0.0225887 0
-0.381297 -0.399739 0
-0.0411964 -0.983339 0
-0.401868 -0.271325 0
-0.135274 0.891134 0
0.522592 -1.09117 0
-0.313558 -0.380297 0
-0.72534 0.595388 0
0.461603 -1.45532 0
-0.390782 -0.364657 0
0.79895 -0.0984443 0
-0.317641 -0.519055 0
-0.763282 -0.47359 0
0.110091 -0.0874828 0
0.122156 0.656992 0
-0.668746 -0.322447 0
0.102575 -0.830804 0
0.215392 -0.883549 0
-0.0929393 0.158272 0
-0.221953 -0.140857 0
0.129614 0.0440814 0
-0.186975 -0.467228 0
-0.21303 -0.625124 0
-0.0107514 -0.661129 0
-0.119994 -0.390168 0
0.269466 0.04345 0
-0.0786753 -0.39713 0
-0.427413 -0.348523 0
-0.0160893 -0.0427981 0
0.189702 -0.237225 0
-0.000971871 -0.605105 0
0.0118939 -0.443885 0
0.148675 -4.7715e-05 0
0.143055 -0.2239 0
0.0158867 -0.703312 0
-0.0925649 -0.498589 0
-0.0147864 -0.142879 0
0.138846 -0.217169 0
0.0900159 -0.361744 0
-0.0625496 -0.41616 0
-0.0593437 -0.330965 0
0.0245621 -0.22247 0
0.0631758 -0.232989 0
0.0353919 -0.349399 0
-0.0327078 -0.391953 0
-0.0263957 -0.300937 0
0.0213911 -0.18006 0
-0.015342 -0.152828 0
-0.0592956 -0.281191 0
-0.00681575 -0.361733 0
0.0511552 -0.319742 0
0.00711242 -0.237727 0
-0.0485543 -0.207607 0
-0.0277106 -0.215369 0
-0.00264054 -0.243008 0
-0.0277795 -0.286073 0
-0.0644853 -0.300096 0
-0.0489853 -0.270835 0
-0.00292763 -0.232484 0
0.0109452 -0.231449 0
-0.0182079 -0.266604 0
-0.0610045 -0.314422 0
-0.207076 -0.535305 0
-0.25265 0.308923 0
-0.127282 -0.088837 0
-0.662607 -0.111176 0
1.26174 0.777931 0
0.491187 0.441496 0
0.131165 0.0764482 0
1.48078 0.744093 0
-0.186891 0.321725 0
0.215748 0.500379 0
0.454761 0.120292 0
-0.0700938 -0.420293 0
0.0379128 -0.136108 0
0.22641 0.259504 0
-0.229224 1.45889 0
-0.0999534 0.703753 0
0.0311035 0.874229 0
0.344513 -0.46587 0
0.278314 -0.683054 0
-0.459202 -0.589434 0
0.145132 -0.276582 0
0.218052 -0.430531 0
-0.46872 -0.413676 0
-2.16999 -0.496933 0
0.745142 -0.112574 0
0.552815 0.228939 0
0.118869 -0.235404 0
-0.436821 -0.266162 0
0.322616 -0.798 0
-0.141558 0.551266 0
0.175496 0.268784 0
0.443323 -0.471025 0
-1.00227 -0.288036 0
0.163366 -0.148947 0
0.305709 -0.387427 0
-0.192053 -0.975161 0
0.257414 1.49494 0
0.0245573 0.251667 0
-0.0617621 -0.0196575 0
0.107052 -0.980687 0
-0.752348 -0.209254 0