<?xml version='1.0' encoding='UTF-8'?>
<VTKFile byte_order='LittleEndian' version='0.1' type = 'UnstructuredGrid'>
<UnstructuredGrid>
<FieldData>
<DataArray type='Float64' Name='Time' NumberOfComponents='1' NumberOfTuples='1' format='ascii'>
3.521
</DataArray>
</FieldData>
<Piece NumberOfCells='808' NumberOfPoints='808'>
<Points>
<DataArray NumberOfComponents='3' type='Float64' Name='position' format='ascii'>
0 0 0
0 0.025 0
-0.0016003 0.04926 0
-0.000544802 0.0748657 0
-3.41419e-05 0.0999976 0
0 0.125 0
0 0.15 0
0 0.175 0
0.0251734 -0.000146405 0
0.05 0 0
0.075 0 0
0.1 0 0
0.124993 -0.000320121 0
0.153243 -0.00380156 0
0.176485 -0.00153954 0
0.200666 -0.00689273 0
0.223656 -0.000973278 0
0.248223 -0.00702435 0
0.265093 -0.00886519 0
0.293866 -0.0141348 0
0.315211 -0.0264613 0
0.332605 -0.0118391 0
0.358757 -0.0848894 0
0.388238 -0.094381 0
0.414809 -0.115755 0
0.439313 -0.139967 0
0.460021 -0.195963 0
0.489785 -0.188229 0
0.519257 -0.217156 0
0.561039 -0.256159 0
0.578607 -0.27482 0
0.586369 -0.294979 0
0.640076 -0.313761 0
0.651666 -0.337025 0
0.681807 -0.34716 0
0.697428 -0.360962 0
0.728246 -0.400001 0
0.759972 -0.387405 0
0.772906 -0.44063 0
0.794805 -0.436077 0
0.822992 -0.461213 0
0.842841 -0.468522 0
0.877535 -0.466958 0
0.886549 -0.487366 0
0.925501 -0.532737 0
0.954342 -0.561213 0
0.973469 -0.57017 0
1.01309 -0.577819 0
1.02226 -0.593038 0
1.04108 -0.605114 0
1.06766 -0.6189 0
1.11419 -0.652459 0
1.12646 -0.663733 0
1.15243 -0.673099 0
1.17853 -0.683052 0
1.19602 -0.695967 0
1.21818 -0.709758 0
1.24791 -0.723048 0
1.27407 -0.73859 0
1.29323 -0.752113 0
1.3187 -0.764435 0
1.35024 -0.779672 0
1.37152 -0.79244 0
1.38913 -0.801723 0
1.4194 -0.815702 0
1.45106 -0.83227 0
1.47139 -0.844978 0
1.49077 -0.854399 0
1.5181 -0.866388 0
1.54717 -0.881067 0
1.5722 -0.894024 0
1.59483 -0.9045 0
1.61822 -0.914954 0
1.64413 -0.926355 0
1.67169 -0.938212 0
1.69756 -0.950125 0
1.72049 -0.961316 0
1.7436 -0.971008 0
1.76993 -0.98015 0
1.79809 -0.990409 0
1.82439 -1.00145 0
1.84788 -1.01137 0
1.87113 -1.01968 0
1.89626 -1.02787 0
1.92283 -1.0374 0
1.9495 -1.04787 0
1.97542 -1.05753 0
2 -1.0657 0
2.0236 -1.07333 0
2.04768 -1.08141 0
2.07298 -1.08984 0
2.09859 -1.09791 0
2.12351 -1.10528 0
2.14787 -1.11191 0
2.17239 -1.11787 0
2.19737 -1.12326 0
2.22256 -1.12817 0
2.24766 -1.13267 0
2.27266 -1.13679 0
2.29767 -1.14042 0
2.32283 -1.14334 0
2.34812 -1.14548 0
2.3735 -1.14693 0
2.39893 -1.14779 0
2.42435 -1.14819 0
2.44972 -1.14824 0
2.47501 -1.1481 0
2.50021 -1.14793 0
0.0145586 0.00426035 0
0.0459286 0.0340848 0
0.0687885 0.0295359 0
0.0979954 0.0216354 0
0.125429 0.0139972 0
0.138609 0.0248375 0
0.173281 0.0175054 0
0.187332 0.0285362 0
0.239088 0.0139749 0
0.251639 0.0146276 0
0.26991 0.0177053 0
0.303265 0.00648453 0
0.323294 -0.0154874 0
0.338389 -0.0201106 0
0.344144 -0.0585791 0
0.388337 -0.0680334 0
0.404568 -0.105273 0
0.438754 -0.115594 0
0.481829 -0.148355 0
0.494622 -0.16938 0
0.535687 -0.207352 0
0.533212 -0.227007 0
0.572069 -0.220524 0
0.611895 -0.265744 0
0.618928 -0.282091 0
0.652187 -0.29862 0
0.66257 -0.301965 0
0.687346 -0.331765 0
0.722204 -0.35908 0
0.752643 -0.378577 0
0.77203 -0.384993 0
0.811923 -0.41312 0
0.820371 -0.441783 0
0.852706 -0.453161 0
0.868876 -0.472177 0
0.901807 -0.503112 0
0.931344 -0.516588 0
0.95304 -0.514527 0
0.965834 -0.535184 0
0.991101 -0.547465 0
1.03199 -0.578236 0
1.05 -0.587879 0
1.07555 -0.598962 0
1.09912 -0.611293 0
1.12647 -0.634245 0
1.15577 -0.650116 0
1.17587 -0.657359 0
1.19602 -0.670016 0
1.22011 -0.687058 0
1.2481 -0.701376 0
1.27322 -0.713335 0
1.29285 -0.72591 0
1.31823 -0.739669 0
1.34887 -0.754103 0
1.37224 -0.767394 0
1.39238 -0.779556 0
1.41901 -0.791978 0
1.44749 -0.806015 0
1.47076 -0.819302 0
1.49303 -0.830685 0
1.51906 -0.842747 0
1.54617 -0.856275 0
1.57115 -0.868912 0
1.59475 -0.879738 0
1.61895 -0.890616 0
1.64465 -0.902523 0
1.67122 -0.914405 0
1.69674 -0.925427 0
1.72046 -0.936008 0
1.74438 -0.946263 0
1.77039 -0.956192 0
1.7975 -0.966407 0
1.82353 -0.976693 0
1.84787 -0.986226 0
1.87179 -0.994992 0
1.89669 -1.00385 0
1.9228 -1.01351 0
1.94923 -1.02345 0
1.97493 -1.03246 0
1.99958 -1.0405 0
2.02369 -1.04854 0
2.04812 -1.05698 0
2.07316 -1.06532 0
2.09836 -1.07307 0
2.12327 -1.08023 0
2.1479 -1.08688 0
2.17254 -1.09292 0
2.19742 -1.09835 0
2.22249 -1.10325 0
2.24759 -1.10777 0
2.27266 -1.11189 0
2.29773 -1.11549 0
2.3229 -1.11839 0
2.34817 -1.12054 0
2.37353 -1.12199 0
2.39893 -1.12287 0
2.42433 -1.12329 0
2.44968 -1.12338 0
2.47497 -1.12329 0
2.50019 -1.12315 0
0.00960522 0.0499536 0
0.0672937 0.0418514 0
0.0851015 0.0337329 0
0.0941633 0.0385244 0
0.127463 0.0512932 0
0.150061 0.0355937 0
0.170098 0.0335531 0
0.193301 0.0426737 0
0.218335 0.0460817 0
0.241106 0.0239454 0
0.274779 0.00897044 0
0.292826 0.00441428 0
0.321489 -0.00124423 0
0.346645 -0.0106659 0
0.359451 -0.0259431 0
0.394244 -0.0580632 0
0.425311 -0.08929 0
0.452724 -0.0967429 0
0.459585 -0.136456 0
0.498253 -0.159482 0
0.529559 -0.193034 0
0.54427 -0.177612 0
0.565194 -0.210641 0
0.601696 -0.232007 0
0.629805 -0.24658 0
0.639893 -0.256675 0
0.672998 -0.291376 0
0.694949 -0.290401 0
0.736804 -0.340256 0
0.751785 -0.359413 0
0.776126 -0.370941 0
0.812923 -0.392962 0
0.823769 -0.407749 0
0.853858 -0.427492 0
0.876129 -0.450832 0
0.888868 -0.470463 0
0.934375 -0.475113 0
0.953717 -0.486346 0
0.96167 -0.502563 0
0.998366 -0.526435 0
1.02993 -0.54342 0
1.05545 -0.572861 0
1.08128 -0.577121 0
1.09829 -0.581001 0
1.12375 -0.60756 0
1.1537 -0.623954 0
1.17395 -0.63041 0
1.19535 -0.644873 0
1.22199 -0.66401 0
1.24877 -0.677507 0
1.27143 -0.68733 0
1.29228 -0.700082 0
1.31919 -0.714667 0
1.34812 -0.728281 0
1.37141 -0.742754 0
1.39384 -0.756276 0
1.42 -0.767958 0
1.44576 -0.780853 0
1.46948 -0.794349 0
1.49415 -0.806152 0
1.52017 -0.818148 0
1.54568 -0.831702 0
1.57026 -0.843885 0
1.59458 -0.854457 0
1.61943 -0.866106 0
1.64512 -0.878615 0
1.67096 -0.89013 0
1.69607 -0.900604 0
1.7204 -0.910732 0
1.74495 -0.921113 0
1.77068 -0.931802 0
1.79706 -0.94211 0
1.82294 -0.951868 0
1.84789 -0.961223 0
1.8723 -0.970264 0
1.89706 -0.97956 0
1.9228 -0.989312 0
1.94897 -0.998689 0
1.97452 -1.00718 0
1.99926 -1.01536 0
2.02376 -1.02377 0
2.04842 -1.03233 0
2.0733 -1.04051 0
2.09824 -1.04806 0
2.12313 -1.05511 0
2.14789 -1.06174 0
2.17262 -1.06786 0
2.19745 -1.07337 0
2.22246 -1.07833 0
2.24755 -1.08288 0
2.27266 -1.08701 0
2.29778 -1.09058 0
2.32297 -1.09346 0
2.34824 -1.09559 0
2.37357 -1.09704 0
2.39894 -1.09793 0
2.4243 -1.09839 0
2.44964 -1.09855 0
2.47494 -1.09854 0
2.50019 -1.09847 0
0.0428159 0.0823745 0
0.0638021 0.0707525 0
0.0864072 0.0669601 0
0.100741 0.0581454 0
0.116705 0.0731269 0
0.15146 0.0687714 0
0.15856 0.0565731 0
0.211953 0.0543959 0
0.226673 0.068781 0
0.231567 0.0447036 0
0.273034 0.0393328 0
0.295342 0.0363784 0
0.312739 0.0122649 0
0.342496 0.00237687 0
0.368928 -0.0195005 0
0.397497 -0.0413292 0
0.414113 -0.0621126 0
0.441563 -0.104821 0
0.476541 -0.107608 0
0.48264 -0.118856 0
0.515243 -0.129733 0
0.54847 -0.154691 0
0.559923 -0.185336 0
0.592037 -0.203798 0
0.625691 -0.224251 0
0.639334 -0.243047 0
0.678626 -0.265226 0
0.712171 -0.276618 0
0.718984 -0.307294 0
0.753696 -0.341751 0
0.778319 -0.333255 0
0.808046 -0.356301 0
0.824466 -0.393236 0
0.860334 -0.400108 0
0.870163 -0.405881 0
0.893149 -0.430571 0
0.931781 -0.446011 0
0.956862 -0.476042 0
0.971815 -0.491126 0
0.99629 -0.499121 0
1.02815 -0.51944 0
1.05422 -0.540662 0
1.07736 -0.552704 0
1.10493 -0.563704 0
1.12661 -0.580734 0
1.14666 -0.597353 0
1.17244 -0.60704 0
1.19724 -0.618225 0
1.22121 -0.637304 0
1.24785 -0.653612 0
1.27154 -0.662322 0
1.29295 -0.674446 0
1.31976 -0.690122 0
1.34759 -0.703831 0
1.37008 -0.717307 0
1.39354 -0.731339 0
1.42094 -0.744038 0
1.44614 -0.756443 0
1.46881 -0.769133 0
1.49393 -0.7816 0
1.52082 -0.794114 0
1.54576 -0.806414 0
1.56945 -0.818181 0
1.59428 -0.829846 0
1.62003 -0.841854 0
1.64553 -0.854227 0
1.67066 -0.865695 0
1.69552 -0.875579 0
1.72033 -0.885495 0
1.74543 -0.896376 0
1.77093 -0.907198 0
1.79669 -0.91736 0
1.82252 -0.927095 0
1.84792 -0.936426 0
1.87264 -0.945665 0
1.89739 -0.955278 0
1.92288 -0.964852 0
1.94873 -0.973659 0
1.97414 -0.981953 0
1.99904 -0.990362 0
2.0238 -0.99905 0
2.04858 -1.00762 0
2.07339 -1.01561 0
2.09822 -1.023 0
2.12306 -1.02998 0
2.14786 -1.03661 0
2.17264 -1.04281 0
2.19748 -1.04838 0
2.22245 -1.05346 0
2.24752 -1.05803 0
2.27264 -1.06216 0
2.2978 -1.06571 0
2.32302 -1.06856 0
2.3483 -1.07067 0
2.37362 -1.0721 0
2.39896 -1.073 0
2.42429 -1.07351 0
2.44962 -1.07376 0
2.47492 -1.07386 0
2.50019 -1.07387 0
0.0232753 0.0917802 0
0.0564794 0.0970523 0
0.0668619 0.108696 0
0.101618 0.104767 0
0.12398 0.103519 0
0.139935 0.089279 0
0.178623 0.0924317 0
0.207121 0.0904156 0
0.225766 0.0787948 0
0.243032 0.0678868 0
0.266669 0.0472771 0
0.296378 0.0493158 0
0.326091 0.0391095 0
0.341614 0.0204533 0
0.379176 -0.00225173 0
0.388466 -0.0178039 0
0.437524 -0.0254173 0
0.444647 -0.0732086 0
0.471494 -0.0605243 0
0.502935 -0.114568 0
0.516632 -0.115394 0
0.551744 -0.140523 0
0.582771 -0.151656 0
0.596648 -0.183943 0
0.629387 -0.18746 0
0.657201 -0.243611 0
0.672666 -0.237535 0
0.710159 -0.241074 0
0.724535 -0.286263 0
0.742785 -0.29497 0
0.788813 -0.304939 0
0.790966 -0.339738 0
0.818025 -0.353906 0
0.852235 -0.358311 0
0.879119 -0.392666 0
0.907788 -0.410983 0
0.929694 -0.424656 0
0.95275 -0.449568 0
0.975471 -0.472459 0
1.00093 -0.474108 0
1.02831 -0.487474 0
1.05038 -0.513113 0
1.07429 -0.526273 0
1.10468 -0.538995 0
1.1277 -0.559015 0
1.14599 -0.572584 0
1.17135 -0.580244 0
1.19785 -0.59534 0
1.22149 -0.611635 0
1.24598 -0.624829 0
1.27041 -0.637602 0
1.29493 -0.651818 0
1.3213 -0.666018 0
1.34614 -0.678857 0
1.36838 -0.692122 0
1.39349 -0.705747 0
1.42143 -0.71895 0
1.44647 -0.732374 0
1.46911 -0.745161 0
1.49392 -0.756778 0
1.5205 -0.769026 0
1.54555 -0.781565 0
1.56927 -0.7931 0
1.59416 -0.804876 0
1.62038 -0.817742 0
1.64586 -0.829956 0
1.67027 -0.840481 0
1.69505 -0.85049 0
1.72048 -0.860939 0
1.74579 -0.87178 0
1.77098 -0.882454 0
1.7965 -0.892448 0
1.8223 -0.902127 0
1.84783 -0.911814 0
1.87281 -0.921379 0
1.89768 -0.930935 0
1.92299 -0.940136 0
1.94856 -0.948572 0
1.97388 -0.956805 0
1.99888 -0.965494 0
2.02376 -0.97439 0
2.04862 -0.982869 0
2.07344 -0.990683 0
2.09824 -0.997951 0
2.12304 -1.00487 0
2.14783 -1.0115 0
2.17263 -1.01779 0
2.19749 -1.02348 0
2.22244 -1.02859 0
2.24749 -1.03319 0
2.27262 -1.03732 0
2.29781 -1.04087 0
2.32306 -1.0437 0
2.34835 -1.04577 0
2.37366 -1.04716 0
2.39897 -1.04806 0
2.42429 -1.04863 0
2.4496 -1.04899 0
2.47491 -1.04921 0
2.50018 -1.04932 0
0.039387 0.134206 0
0.0395371 0.121659 0
0.0684667 0.124023 0
0.0949952 0.118939 0
0.105924 0.129375 0
0.14453 0.124213 0
0.184983 0.100828 0
0.198096 0.0980666 0
0.254187 0.0990448 0
0.245418 0.0825495 0
0.262336 0.0906448 0
0.299704 0.0636991 0
0.314247 0.0744607 0
0.345871 0.0334217 0
0.365659 0.025902 0
0.411555 0.0155083 0
0.421251 -0.01166 0
0.453029 -0.0339363 0
0.481478 -0.044729 0
0.517579 -0.0882317 0
0.51248 -0.0796292 0
0.56083 -0.105377 0
0.578894 -0.128884 0
0.599563 -0.147173 0
0.637425 -0.173961 0
0.658661 -0.192475 0
0.678406 -0.212175 0
0.704313 -0.224919 0
0.721568 -0.263059 0
0.750385 -0.282968 0
0.781085 -0.284735 0
0.789331 -0.294266 0
0.811599 -0.318331 0
0.860994 -0.344425 0
0.883687 -0.371393 0
0.898005 -0.382059 0
0.928081 -0.398809 0
0.954814 -0.422362 0
0.974938 -0.437408 0
1.0042 -0.455333 0
1.03176 -0.468061 0
1.04982 -0.483147 0
1.07243 -0.499355 0
1.10027 -0.513933 0
1.12456 -0.532965 0
1.14885 -0.54747 0
1.17355 -0.555765 0
1.19658 -0.570554 0
1.22094 -0.586658 0
1.24553 -0.599608 0
1.26943 -0.612099 0
1.29586 -0.627671 0
1.32257 -0.642962 0
1.34513 -0.653984 0
1.36706 -0.665738 0
1.39377 -0.680995 0
1.42197 -0.695188 0
1.44625 -0.707356 0
1.46892 -0.719708 0
1.49416 -0.732467 0
1.52051 -0.74485 0
1.54518 -0.756584 0
1.56913 -0.768033 0
1.59438 -0.78033 0
1.62044 -0.793377 0
1.64568 -0.805192 0
1.67011 -0.815218 0
1.69497 -0.825494 0
1.72056 -0.836693 0
1.74596 -0.847519 0
1.771 -0.857537 0
1.7964 -0.867225 0
1.82217 -0.877189 0
1.84771 -0.887362 0
1.87285 -0.897228 0
1.89788 -0.906552 0
1.92309 -0.915224 0
1.94849 -0.923427 0
1.97377 -0.931809 0
1.99875 -0.940702 0
2.02365 -0.949688 0
2.04859 -0.958131 0
2.07349 -0.96579 0
2.09828 -0.972886 0
2.12303 -0.979738 0
2.14781 -0.986461 0
2.17263 -0.992833 0
2.19749 -0.998611 0
2.22242 -1.00375 0
2.24745 -1.00835 0
2.27258 -1.0125 0
2.2978 -1.01607 0
2.32308 -1.01888 0
2.34838 -1.0209 0
2.37369 -1.02224 0
2.399 -1.02312 0
2.4243 -1.02374 0
2.44961 -1.02421 0
2.47491 -1.02455 0
2.50017 -1.02476 0
0.0311888 0.152511 0
0.0652432 0.153258 0
0.0609828 0.144054 0
0.0983878 0.150381 0
0.118043 0.154647 0
0.14353 0.143463 0
0.187929 0.127083 0
0.206983 0.127219 0
0.220561 0.132895 0
0.248515 0.109341 0
0.273339 0.124722 0
0.290877 0.0870884 0
0.34132 0.0771724 0
0.351583 0.0762612 0
0.388829 0.037951 0
0.40913 0.0469588 0
0.42945 0.0228327 0
0.43191 0.011996 0
0.479834 -0.010933 0
0.496522 -0.0458247 0
0.523984 -0.0673671 0
0.552242 -0.0642336 0
0.590017 -0.0949771 0
0.602409 -0.115863 0
0.626857 -0.132607 0
0.651994 -0.174321 0
0.674607 -0.182111 0
0.688185 -0.216498 0
0.730319 -0.245939 0
0.749123 -0.242867 0
0.783964 -0.259832 0
0.803094 -0.275998 0
0.83121 -0.304194 0
0.858989 -0.310787 0
0.868893 -0.314134 0
0.889987 -0.352304 0
0.931701 -0.383847 0
0.958464 -0.396429 0
0.976244 -0.410928 0
1.00224 -0.427093 0
1.03081 -0.447925 0
1.05217 -0.460963 0
1.07314 -0.472559 0
1.0971 -0.488277 0
1.12365 -0.505637 0
1.14934 -0.519247 0
1.17267 -0.531139 0
1.19687 -0.546782 0
1.22178 -0.564039 0
1.24499 -0.57474 0
1.26911 -0.586528 0
1.29608 -0.604053 0
1.32196 -0.618547 0
1.34454 -0.628701 0
1.36785 -0.64096 0
1.39455 -0.656668 0
1.42136 -0.670913 0
1.44537 -0.682255 0
1.46878 -0.694042 0
1.49434 -0.708058 0
1.52067 -0.721302 0
1.54536 -0.731982 0
1.5692 -0.74292 0
1.59419 -0.755969 0
1.62011 -0.769002 0
1.64548 -0.780034 0
1.67018 -0.790131 0
1.69512 -0.800941 0
1.72058 -0.81254 0
1.74593 -0.823345 0
1.77101 -0.832616 0
1.79633 -0.841916 0
1.82204 -0.852382 0
1.84768 -0.863102 0
1.87289 -0.873087 0
1.89789 -0.882092 0
1.92312 -0.890285 0
1.94856 -0.898354 0
1.97376 -0.906941 0
1.99864 -0.915977 0
2.02352 -0.924982 0
2.04853 -0.933431 0
2.07351 -0.940979 0
2.09831 -0.947859 0
2.12304 -0.95463 0
2.1478 -0.961453 0
2.17263 -0.967969 0
2.19749 -0.973761 0
2.22239 -0.978884 0
2.2474 -0.983505 0
2.27254 -0.987703 0
2.29778 -0.991298 0
2.32309 -0.994096 0
2.34841 -0.996057 0
2.37372 -0.997332 0
2.39901 -0.998189 0
2.42432 -0.998853 0
2.44963 -0.999415 0
2.47492 -0.999856 0
2.50017 -1.00014 0
0.0221025 0.18835 0
0.0567862 0.170763 0
0.0686884 0.181074 0
0.0999588 0.162739 0
0.128906 0.170291 0
0.155151 0.161885 0
0.175829 0.185769 0
0.197953 0.148206 0
0.22309 0.16447 0
0.266 0.146423 0
0.295206 0.127147 0
0.292861 0.115731 0
0.319428 0.120696 0
0.36039 0.0923186 0
0.379654 0.0960183 0
0.412074 0.0643128 0
0.421594 0.049105 0
0.458403 0.0350483 0
0.46995 -0.00744185 0
0.494294 -0.0220869 0
0.523094 -0.0245323 0
0.545338 -0.0559327 0
0.587069 -0.0734892 0
0.608304 -0.106615 0
0.632543 -0.112214 0
0.654351 -0.1466 0
0.678138 -0.142363 0
0.706534 -0.187117 0
0.730243 -0.200279 0
0.758047 -0.195658 0
0.773135 -0.229079 0
0.811639 -0.265918 0
0.833636 -0.25194 0
0.846044 -0.298023 0
0.871896 -0.324306 0
0.907465 -0.322496 0
0.930331 -0.35107 0
0.954682 -0.384593 0
0.976212 -0.382255 0
1.00035 -0.394191 0
1.02802 -0.42814 0
1.05106 -0.438162 0
1.07396 -0.442027 0
1.10101 -0.466756 0
1.12523 -0.484531 0
1.14569 -0.486482 0
1.16953 -0.501421 0
1.19803 -0.528216 0
1.22404 -0.542314 0
1.24535 -0.547936 0
1.26848 -0.561631 0
1.29507 -0.580115 0
1.32085 -0.59384 0
1.3448 -0.604085 0
1.3693 -0.617016 0
1.39514 -0.633021 0
1.4205 -0.646885 0
1.44433 -0.656929 0
1.46839 -0.668628 0
1.49442 -0.684177 0
1.52111 -0.698182 0
1.54595 -0.707897 0
1.56923 -0.717923 0
1.5935 -0.731389 0
1.61957 -0.745004 0
1.64558 -0.755562 0
1.67044 -0.765136 0
1.69515 -0.776672 0
1.72049 -0.788899 0
1.74594 -0.799146 0
1.77099 -0.807751 0
1.79613 -0.817007 0
1.82192 -0.827851 0
1.84782 -0.839155 0
1.87296 -0.849184 0
1.89774 -0.857556 0
1.92306 -0.86543 0
1.94871 -0.873685 0
1.97384 -0.882319 0
1.99852 -0.891323 0
2.02338 -0.900482 0
2.0485 -0.908973 0
2.07354 -0.916278 0
2.09833 -0.922936 0
2.12303 -0.929721 0
2.14779 -0.936678 0
2.17262 -0.943211 0
2.19747 -0.948989 0
2.22235 -0.954041 0
2.24735 -0.958712 0
2.2725 -0.96296 0
2.29776 -0.966575 0
2.32309 -0.969357 0
2.34842 -0.971255 0
2.37373 -0.972458 0
2.39902 -0.973282 0
2.42433 -0.973969 0
2.44965 -0.97459 0
2.47495 -0.97509 0
2.50018 -0.975425 0
</DataArray>
</Points>
<PointData>
<DataArray NumberOfComponents='1' type='Int32' Name='Particle Type' format='ascii'>
0
0
0
0
0
0
0
0
0
0
0
0
0
0
0
0
0
0
0
0
0
0
1
1
1
1
1
1
1
1
1
1
1
1
1
1
1
1
1
1
1
1
1
1
1
1
1
1
1
1
1
1
1
1
1
1
1
1
1
1
1
1
1
1
1
1
1
1
1
1
1
1
1
1
1
1
1
1
1
1
1
1
1
1
1
1
1
1
1
1
1
1
1
1
1
1
1
1
1
1
1
1
1
1
1
1
1
1
1
1
1
1
1
1
1
1
1
1
1
1
1
1
1
1
1
1
1
1
1
1
1
1
1
1
1
1
1
1
1
1
1
1
1
1
1
1
1
1
1
1
1
1
1
1
1
1
1
1
1
1
1
1
1
1
1
1
1
1
1
1
1
1
1
1
1
1
1
1
1
1
1
1
1
1
1
1
1
1
1
1
1
1
1
1
1
1
1
1
1
1
1
1
1
1
1
1
1
1
1
1
1
1
1
1
1
1
1
1
1
1
1
1
1
1
1
1
1
1
1
1
1
1
1
1
1
1
1
1
1
1
1
1
1
1
1
1
1
1
1
1
1
1
1
1
1
1
1
1
1
1
1
1
1
1
1
1
1
1
1
1
1
1
1
1
1
1
1
1
1
1
1
1
1
1
1
1
1
1
1
1
1
1
1
1
1
1
1
1
1
1
1
1
1
1
1
1
1
1
1
1
1
1
1
1
1
1
1
1
1
1
1
1
1
1
1
1
1
1
1
1
1
1
1
1
1
1
1
1
1
1
1
1
1
1
1
1
1
1
1
1
1
1
1
1
1
1
1
1
1
1
1
1
1
1
1
1
1
1
1
1
1
1
1
1
1
1
1
1
1
1
1
1
1
1
1
1
1
1
1
1
1
1
1
1
1
1
1
1
1
1
1
1
1
1
1
1
1
1
1
1
1
1
1
1
1
1
1
1
1
1
1
1
1
1
1
1
1
1
1
1
1
1
1
1
1
1
1
1
1
1
1
1
1
1
1
1
1
1
1
1
1
1
1
1
1
1
1
1
1
1
1
1
1
1
1
1
1
1
1
1
1
1
1
1
1
1
1
1
1
1
1
1
1
1
1
1
1
1
1
1
1
1
1
1
1
1
1
1
1
1
1
1
1
1
1
1
1
1
1
1
1
1
1
1
1
1
1
1
1
1
1
1
1
1
1
1
1
1
1
1
1
1
1
1
1
1
1
1
1
1
1
1
1
1
1
1
1
1
1
1
1
1
1
1
1
1
1
1
1
1
1
1
1
1
1
1
1
1
1
1
1
1
1
1
1
1
1
1
1
1
1
1
1
1
1
1
1
1
1
1
1
1
1
1
1
1
1
1
1
1
1
1
1
1
1
1
1
1
1
1
1
1
1
1
1
1
1
1
1
1
1
1
1
1
1
1
1
1
1
1
1
1
1
1
1
1
1
1
1
1
1
1
1
1
1
1
1
1
1
1
1
1
1
1
1
1
1
1
1
1
1
1
1
1
1
1
1
1
1
1
1
1
1
1
1
1
1
1
1
1
1
1
1
1
1
1
1
1
1
1
1
1
1
1
1
1
1
1
1
1
1
1
1
1
1
1
1
1
1
1
1
1
1
1
1
1
1
1
1
1
1
1
1
1
1
1
1
1
1
1
1
1
1
1
1
1
1
1
1
1
1
1
1
1
1
1
1
1
1
1
1
1
1
1
1
1
1
1
1
1
1
1
1
1
1
1
1
1
1
1
1
1
1
1
1
1
1
1
1
1
1
1
1
1
1
1
1
1
1
1
1
1
1
1
1
1
1
1
1
1
1
1
1
1
1
1
1
1
</DataArray>
<DataArray NumberOfComponents='3' type='Float64' Name='Velocity' format='ascii'>
0 0 0
0 0 0
-0.759375 -0.0896113 0
-0.375428 -0.0975743 0
-0.040161 -0.00260138 0
0 0 0
0 0 0
0 0 0
0.180692 -0.171073 0
0 0 0
0 0 0
0 0 0
-0.0037498 -0.191854 0
0.376891 -0.837306 0
0.329871 -0.31467 0
0.0517448 -0.763436 0
-0.26285 -0.167797 0
-0.125847 -0.580021 0
-0.416328 -0.400853 0
0.164252 -0.720532 0
-0.0647712 -0.324376 0
0.0674621 0.60558 0
-0.120582 -0.388693 0
-0.270521 -0.403475 0
0.247145 0.211596 0
-0.547491 0.143431 0
-0.0639533 0.403463 0
-0.112628 -0.463989 0
0.369222 -0.0926581 0
-0.35175 -0.269569 0
-0.0488448 -0.218995 0
-0.409362 0.317831 0
-0.957992 -0.605306 0
-0.0610859 -0.189805 0
-0.0190647 0.00312467 0
0.741022 -0.680534 0
-0.617073 -0.259646 0
0.309204 0.548327 0
0.398004 0.0964905 0
0.236394 -0.976596 0
-0.103592 1.42916 0
-0.307292 -1.3059 0
0.501377 -0.393771 0
0.130981 0.34293 0
-0.516142 0.324675 0
0.41771 -0.0570202 0
-0.265968 -0.203166 0
0.130438 -0.508985 0
0.507352 -0.0957479 0
0.0348969 -0.433242 0
-0.420088 0.145012 0
-0.229817 0.0535582 0
0.241679 -0.459387 0
-0.106438 -0.413519 0
0.120021 -0.353206 0
0.18588 -0.273439 0
-0.0625777 -0.297262 0
-0.136421 -0.242654 0
0.0780555 -0.2146 0
0.10217 -0.304443 0
-0.159592 -0.275121 0
-0.0590978 -0.283994 0
0.237019 -0.397263 0
0.0260386 -0.352479 0
-0.266824 -0.195063 0
-0.0295121 -0.243992 0
0.212372 -0.374296 0
0.0478838 -0.374922 0
-0.138824 -0.268604 0
-0.0792754 -0.263005 0
0.0419472 -0.347188 0
0.0689576 -0.385603 0
0.00996552 -0.362844 0
-0.0688992 -0.339422 0
-0.0671416 -0.329437 0
0.0238714 -0.336354 0
0.0763326 -0.374597 0
0.0109651 -0.414129 0
-0.0827244 -0.404317 0
-0.0769858 -0.368927 0
0.0146304 -0.375422 0
0.0696496 -0.425165 0
0.0339247 -0.453618 0
-0.029707 -0.428237 0
-0.0570753 -0.383837 0
-0.047147 -0.381844 0
-0.0116811 -0.425571 0
0.0305898 -0.461689 0
0.0374038 -0.457568 0
-0.000346043 -0.434889 0
-0.0336741 -0.426624 0
-0.0277153 -0.43453 0
-0.00494607 -0.447001 0
0.000889171 -0.454356 0
-0.0115169 -0.457289 0
-0.0223472 -0.45644 0
-0.0212466 -0.449659 0
-0.0129078 -0.443558 0
-0.00603834 -0.43648 0
-0.00385304 -0.436638 0
-0.00426375 -0.441084 0
-0.00538159 -0.444185 0
-0.00738339 -0.44375 0
-0.0101622 -0.44024 0
-0.0128079 -0.435357 0
-0.0144904 -0.430842 0
-0.0150356 -0.42775 0
-0.0148335 -0.42614 0
-0.0394339 0.323178 0
-0.159775 0.105986 0
-0.442108 -0.303184 0
0.17564 -0.590136 0
-0.0261589 0.502582 0
-0.193936 -0.097776 0
-0.106664 -0.768918 0
-0.16747 0.398612 0
-0.248997 -0.129659 0
0.358743 -0.506083 0
0.432539 -0.166822 0
-0.196944 -0.727976 0
-0.0822385 0.339475 0
0.200568 0.0438216 0
-0.205029 0.256862 0
0.326635 0.880123 0
-0.973002 -0.353607 0
0.516187 -0.0529782 0
-0.410912 -0.120499 0
-0.432577 0.418554 0
-0.998734 -0.364061 0
1.11101 0.203089 0
-0.342669 0.0522806 0
0.519859 -1.09519 0
0.275932 0.611384 0
0.210216 -0.20185 0
0.375364 -0.247942 0
0.5247 0.275116 0
-0.678942 -0.286781 0
0.548926 -0.786657 0
0.423266 -0.400495 0
-0.329163 0.184429 0
0.480544 -0.397798 0
-0.53447 0.204314 0
-0.0613651 0.381402 0
-0.35003 0.547368 0
0.117253 -1.15212 0
0.723783 -0.508299 0
-0.111508 -0.933302 0
-0.471259 0.336274 0
-0.0834806 -0.171233 0
0.148994 -0.393242 0
0.0208706 -0.45219 0
0.0343542 -0.144966 0
-0.246712 4.69144e-05 0
0.00597472 -0.372113 0
0.182982 -0.409145 0
0.0839736 -0.21129 0
-0.0521926 -0.187576 0
-0.0877664 -0.306781 0
0.103768 -0.333485 0
0.106708 -0.289987 0
-0.150493 -0.258906 0
-0.102329 -0.266865 0
0.14077 -0.316735 0
0.0655856 -0.328002 0
-0.113146 -0.296607 0
-0.0420473 -0.26696 0
0.0862928 -0.322268 0
0.0239624 -0.342529 0
-0.0707769 -0.29745 0
-0.0444607 -0.286393 0
0.0237903 -0.340734 0
0.0366467 -0.373846 0
-0.00182482 -0.348796 0
-0.0453312 -0.325981 0
-0.0419226 -0.344271 0
0.0147853 -0.36814 0
0.0470384 -0.377231 0
0.00226378 -0.388636 0
-0.0565278 -0.390127 0
-0.0528292 -0.382086 0
0.00102504 -0.396389 0
0.03978 -0.423053 0
0.0277465 -0.432633 0
-0.0145491 -0.412859 0
-0.044961 -0.391414 0
-0.0394801 -0.40273 0
-0.00810601 -0.440347 0
0.0193854 -0.454202 0
0.0197679 -0.440724 0
-0.00177662 -0.428222 0
-0.0193282 -0.433427 0
-0.0193101 -0.443377 0
-0.0103772 -0.44782 0
-0.00631745 -0.450545 0
-0.0108753 -0.455446 0
-0.0173071 -0.455369 0
-0.0185606 -0.450036 0
-0.0144626 -0.442414 0
-0.00887664 -0.437412 0
-0.00540611 -0.437999 0
-0.00468131 -0.44191 0
-0.00544853 -0.444512 0
-0.00715046 -0.443726 0
-0.00951988 -0.440092 0
-0.0119745 -0.435339 0
-0.0138502 -0.431086 0
-0.0148361 -0.428205 0
-0.0150713 -0.426704 0
0.709036 -0.981866 0
-1.30678 0.208412 0
-0.443572 0.00537665 0
0.0414335 -0.47692 0
-0.0433042 0.422193 0
-0.318566 0.648518 0
0.254462 -0.203259 0
0.148257 -0.512804 0
0.236353 -0.103929 0
0.13887 -0.115836 0
0.188692 -0.483342 0
-0.28645 -0.228495 0
-0.964895 -0.475096 0
0.104504 0.22037 0
0.377692 -0.575156 0
0.165714 -0.341582 0
-0.565144 -1.10572 0
-0.770625 -0.762278 0
0.0757408 0.611992 0
0.419422 -0.016962 0
0.403379 -0.449268 0
-0.245343 0.0982394 0
-0.0705077 0.459322 0
0.358546 0.107956 0
1.08779 -1.30666 0
-0.347921 0.834339 0
0.228953 0.712554 0
0.620074 -0.354273 0
-0.876375 0.337774 0
0.43333 -0.230671 0
-0.543837 -0.464964 0
0.214987 0.390912 0
0.747158 -0.555152 0
-0.667925 -0.0691518 0
0.230513 -0.127904 0
-0.132523 -0.535529 0
-0.521339 -0.649864 0
0.631351 -0.145232 0
0.140823 0.0369824 0
-0.55326 -0.236481 0
-0.130131 0.144918 0
-0.110474 -0.109151 0
0.191865 -0.834851 0
0.222744 -0.227793 0
-0.190205 0.0846599 0
-0.0171184 -0.404199 0
0.180778 -0.382076 0
-0.000205376 -0.114394 0
-0.0940532 -0.178035 0
0.00570761 -0.37028 0
0.139787 -0.383779 0
0.0372387 -0.261077 0
-0.150456 -0.266528 0
-0.0568951 -0.250175 0
0.0879277 -0.245131 0
0.0217658 -0.322838 0
-0.0396939 -0.340253 0
0.0115284 -0.284027 0
0.0186677 -0.306985 0
-0.0281518 -0.343988 0
-0.0336527 -0.29672 0
-0.00424455 -0.288131 0
0.0150515 -0.359216 0
0.011531 -0.365558 0
-0.0140956 -0.317116 0
-0.0322033 -0.322951 0
-0.0188448 -0.363325 0
0.0112517 -0.386675 0
0.0228409 -0.387835 0
-0.00371561 -0.371808 0
-0.0372813 -0.370432 0
-0.0371776 -0.391408 0
-0.00946493 -0.408345 0
0.0178791 -0.420652 0
0.0229456 -0.419865 0
-0.00292638 -0.403042 0
-0.0335117 -0.398904 0
-0.0321641 -0.42485 0
-0.00652332 -0.445399 0
0.00973986 -0.44221 0
0.00717381 -0.430418 0
-0.00264339 -0.429107 0
-0.0104549 -0.438964 0
-0.0136939 -0.447101 0
-0.0123972 -0.448803 0
-0.0103062 -0.448209 0
-0.0111526 -0.45238 0
-0.0148559 -0.452277 0
-0.0168517 -0.448518 0
-0.0149616 -0.441823 0
-0.0107872 -0.438372 0
-0.00710164 -0.439859 0
-0.00545151 -0.443569 0
-0.00548132 -0.445857 0
-0.00660675 -0.444754 0
-0.00855892 -0.440758 0
-0.0109771 -0.435718 0
-0.0132328 -0.431376 0
-0.0147639 -0.428564 0
-0.0154097 -0.427163 0
-0.456374 -0.0786395 0
0.737741 0.531822 0
-0.230531 -0.221076 0
-0.299862 0.313685 0
0.47543 -0.16042 0
-0.97674 -0.00295491 0
-0.230171 0.0472708 0
0.273583 0.35852 0
-0.548761 -0.0922562 0
0.387392 0.319966 0
0.258506 -0.0488753 0
0.50797 -0.221246 0
-0.879406 -0.376564 0
0.226117 0.573609 0
-0.155778 0.542577 0
0.350851 0.159332 0
-0.135363 0.697938 0
0.239254 0.568852 0
0.0516398 -0.827923 0
1.42242 -0.356491 0
0.488332 -0.247978 0
-0.366197 -0.281847 0
-0.412258 -0.0835709 0
-0.700982 0.0788352 0
-0.750912 0.0575445 0
0.935076 -0.0648673 0
-0.463219 -1.14944 0
0.352634 0.175758 0
0.216958 0.490621 0
-0.406363 -0.089372 0
0.17004 -0.481239 0
-0.243092 -0.771181 0
-0.279445 -0.152501 0
0.243016 -1.14691 0
0.645231 -0.106351 0
-0.473783 -0.177409 0
-0.447264 0.18184 0
0.199339 0.328496 0
0.252825 -0.362024 0
-0.0971088 -0.224896 0
-0.208192 0.0125536 0
0.0334954 -0.182165 0
-0.0482794 -0.378119 0
0.00633966 -0.315926 0
0.225722 -0.182072 0
0.0710854 -0.28976 0
-0.0425278 -0.418526 0
0.0281176 -0.22834 0
-0.0319851 -0.0844962 0
-0.0376628 -0.339247 0
0.110292 -0.433712 0
0.0383163 -0.260603 0
-0.124996 -0.229339 0
-0.0149097 -0.27902 0
0.08805 -0.257086 0
-0.0328092 -0.282361 0
-0.0643848 -0.32381 0
0.0498653 -0.320552 0
0.0395413 -0.311633 0
-0.0593923 -0.311511 0
-0.0442857 -0.315825 0
0.0301469 -0.333035 0
0.024334 -0.336741 0
-0.021275 -0.331734 0
-0.028241 -0.319513 0
-0.0125699 -0.32397 0
-7.80609e-05 -0.374928 0
0.00720568 -0.407888 0
0.00246145 -0.380791 0
-0.0103825 -0.358179 0
-0.0200522 -0.372573 0
-0.0251443 -0.392182 0
-0.0193085 -0.408359 0
0.00366211 -0.418978 0
0.0188149 -0.41 0
0.00238375 -0.398746 0
-0.022464 -0.414343 0
-0.0231379 -0.43825 0
-0.00736498 -0.442417 0
0.00141214 -0.431663 0
6.41809e-05 -0.424486 0
-0.00333029 -0.431888 0
-0.00667557 -0.445006 0
-0.0104119 -0.450369 0
-0.0120792 -0.448477 0
-0.0117794 -0.44543 0
-0.0119065 -0.449353 0
-0.0141477 -0.448181 0
-0.0158664 -0.445923 0
-0.0148522 -0.441968 0
-0.0118229 -0.439601 0
-0.00857382 -0.441857 0
-0.00637376 -0.445818 0
-0.00552583 -0.448157 0
-0.00587617 -0.446737 0
-0.00742765 -0.441994 0
-0.00999186 -0.436161 0
-0.0128008 -0.431428 0
-0.0149222 -0.428685 0
-0.015905 -0.427506 0
0.0197325 0.0864388 0
0.515274 -0.11619 0
0.0791018 -0.181464 0
-0.0483534 0.055798 0
1.04648 -0.573152 0
-0.088679 0.674875 0
0.56759 -0.880271 0
0.372181 0.337408 0
-0.48437 -0.0105133 0
0.526847 0.787466 0
-0.765593 -0.522677 0
0.354573 0.290767 0
0.654011 0.136322 0
0.120342 -0.250368 0
-0.0463157 0.341735 0
0.0439956 -0.078709 0
0.125655 -0.336195 0
0.486498 0.91728 0
-0.197034 0.350944 0
-0.365307 0.0592872 0
-1.2011 -0.236462 0
-0.480202 -0.909753 0
0.384104 -0.193777 0
0.249887 0.864823 0
-0.302381 -0.0605736 0
0.0896947 0.139429 0
0.346129 -0.221611 0
-0.302857 -0.379433 0
0.854684 -0.126475 0
-0.252248 -0.318697 0
-0.320625 0.519103 0
0.559322 0.487024 0
-0.152103 -0.411875 0
-0.109839 0.100742 0
-0.387058 0.158152 0
0.0249651 -0.307344 0
0.135129 -0.155076 0
0.0544559 0.133353 0
0.04206 -0.408583 0
-0.042357 -0.668389 0
0.0357695 -0.00100532 0
0.101634 -0.035678 0
-0.1273 -0.356172 0
-0.0977058 -0.160784 0
0.223628 -0.164811 0
0.138233 -0.455621 0
-0.0701384 -0.371677 0
-0.00452591 -0.2033 0
0.0346245 -0.266854 0
-0.000208172 -0.299361 0
0.0116801 -0.270056 0
-0.0246423 -0.254066 0
-0.0344408 -0.288282 0
0.0590087 -0.295129 0
0.0517691 -0.279003 0
-0.0800035 -0.287115 0
-0.0744156 -0.282301 0
0.0465519 -0.282407 0
0.0479521 -0.334445 0
-0.0375794 -0.345996 0
-0.0391834 -0.313417 0
0.0224229 -0.326467 0
0.0230793 -0.344502 0
-0.0323046 -0.311233 0
-0.0405054 -0.300401 0
0.00477212 -0.351555 0
0.0185728 -0.393251 0
-0.00673174 -0.390372 0
-0.0148165 -0.372693 0
-0.00584616 -0.363602 0
-0.0095175 -0.377068 0
-0.0215872 -0.397273 0
-0.0213529 -0.402149 0
-0.00323997 -0.404341 0
0.0116445 -0.405554 0
0.00362048 -0.407541 0
-0.0131627 -0.427524 0
-0.0159496 -0.445666 0
-0.00786803 -0.437021 0
-0.00298878 -0.420923 0
-0.00339048 -0.42211 0
-0.00472071 -0.436544 0
-0.00636869 -0.449596 0
-0.00896354 -0.452678 0
-0.0109696 -0.448616 0
-0.0117447 -0.443567 0
-0.0126876 -0.444014 0
-0.0139626 -0.44601 0
-0.0149517 -0.445134 0
-0.014545 -0.441951 0
-0.0125511 -0.440803 0
-0.00978118 -0.443688 0
-0.00718944 -0.448455 0
-0.00546738 -0.451223 0
-0.00504113 -0.449392 0
-0.00632567 -0.443452 0
-0.00921379 -0.436353 0
-0.0126734 -0.431055 0
-0.0153679 -0.428553 0
-0.0166064 -0.42789 0
-0.673331 -0.230543 0
-0.377151 0.271607 0
0.865459 -0.382561 0
-1.55988 -0.316891 0
-0.470863 -0.627347 0
-0.137389 1.15255 0
-0.11941 -0.304671 0
-0.497854 0.165892 0
0.571493 -0.229568 0
0.223089 0.668852 0
-0.610077 -0.931026 0
-0.61036 0.745201 0
0.018899 0.645201 0
-0.518545 -0.378833 0
0.634685 -0.221745 0
-0.300711 -0.150891 0
-0.035759 -0.884209 0
0.0638262 -0.739863 0
-0.292052 -1.27104 0
0.884998 0.215284 0
1.03276 0.349813 0
-0.027936 0.163285 0
-0.0109088 0.0422086 0
0.445754 -0.591602 0
-0.720376 0.460061 0