<?xml version='1.0' encoding='UTF-8'?>
<VTKFile byte_order='LittleEndian' version='0.1' type = 'UnstructuredGrid'>
<UnstructuredGrid>
<FieldData>
<DataArray type='Float64' Name='Time' NumberOfComponents='1' NumberOfTuples='1' format='ascii'>
4.721
</DataArray>
</FieldData>
<Piece NumberOfCells='808' NumberOfPoints='808'>
<Points>
<DataArray NumberOfComponents='3' type='Float64' Name='position' format='ascii'>
-0.00201484 -0.00174893 0
-0.00265088 0.0249012 0
-0.00945814 0.0488245 0
-0.0071515 0.0874482 0
-0.00751351 0.0950629 0
-0.000628874 0.12529 0
-0.00752124 0.150103 0
-0.00533823 0.177438 0
0.0270351 -0.00201781 0
0.0444678 -0.0062981 0
0.0755701 -0.00406963 0
0.0971091 -0.00277907 0
0.123011 -0.00273326 0
0.153998 -0.00656833 0
0.1759 -0.0139203 0
0.204029 -0.0159187 0
0.207148 -0.010506 0
0.231942 -0.0152915 0
0.251653 -0.026147 0
0.296709 -0.0299744 0
0.314648 -0.0435058 0
0.334522 -0.00131233 0
0.366962 -0.649368 0
0.421134 -0.687831 0
0.410098 -0.660738 0
0.448932 -0.635496 0
0.469596 -0.64597 0
0.490724 -0.65546 0
0.54296 -0.652669 0
0.534306 -0.672237 0
0.54677 -0.662508 0
0.573839 -0.678966 0
0.623066 -0.666011 0
0.645433 -0.657346 0
0.687981 -0.634368 0
0.70923 -0.651544 0
0.719824 -0.668578 0
0.752714 -0.64431 0
0.791835 -0.666518 0
0.808518 -0.656597 0
0.831984 -0.702755 0
0.852439 -0.72517 0
0.852372 -0.756266 0
0.764085 -1.0132 0
0.933921 -0.92852 0
0.960252 -0.914636 0
0.993543 -0.911314 0
1.032 -0.915794 0
1.06543 -0.900341 0
1.0755 -0.928518 0
1.08014 -0.939338 0
1.11741 -0.950629 0
1.08994 -1.06973 0
1.14305 -1.11679 0
1.1691 -1.13219 0
1.18596 -1.12683 0
1.19704 -1.14181 0
1.25044 -1.1481 0
1.26523 -1.13412 0
1.30511 -1.16631 0
1.33149 -1.15602 0
1.37615 -1.17752 0
1.36648 -1.15618 0
1.38812 -1.20185 0
1.42095 -1.23582 0
1.47683 -1.24838 0
1.51528 -1.26348 0
1.49342 -1.26518 0
1.5314 -1.27337 0
1.54183 -1.31097 0
1.58002 -1.30178 0
1.60207 -1.31348 0
1.63758 -1.32944 0
1.68215 -1.34206 0
1.67395 -1.35774 0
1.67769 -1.39054 0
1.7409 -1.37443 0
1.76008 -1.39254 0
1.77127 -1.40684 0
1.80985 -1.43164 0
1.81 -1.40285 0
1.84578 -1.42804 0
1.87956 -1.46013 0
1.89822 -1.46637 0
1.92392 -1.46023 0
1.95386 -1.46111 0
1.9804 -1.4722 0
2.00383 -1.4836 0
2.0169 -1.48895 0
2.0376 -1.49007 0
2.06647 -1.49013 0
2.09013 -1.49815 0
2.12036 -1.50567 0
2.13884 -1.50578 0
2.15773 -1.51072 0
2.19017 -1.51653 0
2.2145 -1.51791 0
2.23253 -1.51725 0
2.25244 -1.52372 0
2.27649 -1.53273 0
2.30264 -1.53387 0
2.33082 -1.52678 0
2.35767 -1.52384 0
2.37901 -1.53148 0
2.39708 -1.54166 0
2.4199 -1.54527 0
2.45074 -1.5417 0
2.48248 -1.53769 0
0.0187029 0.0339391 0
0.0402723 0.0067196 0
0.0754017 0.0071921 0
0.107517 0.0111121 0
0.143794 0.0451126 0
0.173802 0.0459022 0
0.175087 0.0268895 0
0.194782 0.0295936 0
0.233979 0.0348946 0
0.258963 0.0330921 0
0.264472 0.00145702 0
0.297442 0.011432 0
0.309288 0.0140371 0
0.371098 0.0883978 0
0.375622 -0.594617 0
0.37929 -0.584394 0
0.407599 -0.626168 0
0.452331 -0.621814 0
0.475295 -0.618743 0
0.483805 -0.63075 0
0.499916 -0.636348 0
0.526502 -0.638189 0
0.536469 -0.639004 0
0.571235 -0.635385 0
0.628908 -0.626706 0
0.647183 -0.611348 0
0.654719 -0.636249 0
0.697062 -0.629132 0
0.713469 -0.622171 0
0.743453 -0.62309 0
0.779526 -0.643448 0
0.81246 -0.666218 0
0.818911 -0.675361 0
0.863323 -0.704124 0
0.868812 -0.720718 0
0.882471 -0.776184 0
0.909906 -0.794591 0
0.951726 -0.864727 0
0.969729 -0.873073 0
1.0087 -0.877144 0
1.05208 -0.899202 0
1.06517 -0.910369 0
1.09086 -0.937801 0
1.11171 -0.958844 0
1.14789 -0.969979 0
1.16635 -1.00847 0
1.16329 -1.02952 0
1.19568 -1.05682 0
1.21882 -1.11943 0
1.24592 -1.12868 0
1.27303 -1.1109 0
1.31503 -1.12159 0
1.31681 -1.13689 0
1.35309 -1.13706 0
1.40136 -1.15461 0
1.39639 -1.17812 0
1.41576 -1.20102 0
1.46227 -1.22328 0
1.50137 -1.25115 0
1.51831 -1.24243 0
1.54015 -1.24821 0
1.55483 -1.2762 0
1.58032 -1.28197 0
1.61699 -1.29251 0
1.63025 -1.32053 0
1.66027 -1.32348 0
1.69141 -1.33171 0
1.70468 -1.34928 0
1.70347 -1.36577 0
1.75977 -1.36333 0
1.7747 -1.38449 0
1.79296 -1.38572 0
1.83391 -1.40301 0
1.84378 -1.40694 0
1.88074 -1.42247 0
1.90142 -1.43374 0
1.91873 -1.44236 0
1.95281 -1.44693 0
1.98456 -1.44334 0
2.00182 -1.44598 0
2.01778 -1.46007 0
2.03425 -1.46609 0
2.06125 -1.46665 0
2.09888 -1.4721 0
2.12199 -1.47417 0
2.13573 -1.48088 0
2.15822 -1.4887 0
2.18828 -1.49172 0
2.21351 -1.48732 0
2.23144 -1.48951 0
2.25219 -1.4997 0
2.27783 -1.50769 0
2.30459 -1.5075 0
2.33061 -1.50207 0
2.35478 -1.50043 0
2.377 -1.50676 0
2.39848 -1.51538 0
2.4225 -1.5186 0
2.4513 -1.51517 0
2.48163 -1.51046 0
0.0421568 0.0425874 0
0.0390961 0.0542038 0
0.0729694 0.0636603 0
0.108168 0.0539925 0
0.135362 0.0745733 0
0.165625 0.0647855 0
0.192557 0.0696314 0
0.201458 0.0537258 0
0.204373 0.0661543 0
0.236647 0.0704035 0
0.224661 0.0692318 0
0.281316 0.110379 0
0.336235 0.11233 0
0.346705 0.113753 0
0.40549 0.117727 0
0.376522 -0.572755 0
0.420199 -0.609988 0
0.420621 -0.596202 0
0.483677 -0.596261 0
0.492388 -0.605197 0
0.520426 -0.630251 0
0.516742 -0.640811 0
0.543054 -0.629325 0
0.582076 -0.602734 0
0.620053 -0.606838 0
0.656985 -0.594911 0
0.669742 -0.589881 0
0.703649 -0.589246 0
0.735318 -0.613438 0
0.728294 -0.6313 0
0.766466 -0.633247 0
0.814934 -0.645877 0
0.834051 -0.674622 0
0.854794 -0.678604 0
0.867759 -0.694861 0
0.862636 -0.756401 0
0.900529 -0.784149 0
0.941739 -0.838738 0
0.992913 -0.824902 0
1.01848 -0.853615 0
1.0433 -0.88637 0
1.07474 -0.892735 0
1.0706 -0.919281 0
1.11325 -0.938881 0
1.13013 -0.956213 0
1.17389 -0.981232 0
1.17299 -1.02631 0
1.1899 -1.02539 0
1.22852 -1.0781 0
1.25228 -1.10056 0
1.27401 -1.09653 0
1.30024 -1.11085 0
1.32581 -1.09819 0
1.34368 -1.12368 0
1.35744 -1.14609 0
1.41618 -1.16637 0
1.44652 -1.17564 0
1.45907 -1.19879 0
1.4866 -1.1988 0
1.49832 -1.22526 0
1.51953 -1.22553 0
1.54403 -1.22495 0
1.57247 -1.25668 0
1.60338 -1.25196 0
1.63064 -1.27054 0
1.67012 -1.28896 0
1.66775 -1.30511 0
1.7033 -1.32309 0
1.72594 -1.33753 0
1.73744 -1.36127 0
1.76516 -1.3428 0
1.80787 -1.35784 0
1.83484 -1.38916 0
1.85751 -1.38963 0
1.874 -1.38158 0
1.89852 -1.40422 0
1.92681 -1.42479 0
1.9494 -1.42107 0
1.97821 -1.41214 0
2.00402 -1.41513 0
2.017 -1.43481 0
2.03567 -1.44909 0
2.06806 -1.44389 0
2.09714 -1.43797 0
2.11839 -1.44737 0
2.13774 -1.45912 0
2.15876 -1.46581 0
2.18529 -1.46459 0
2.21237 -1.45968 0
2.23304 -1.46312 0
2.25192 -1.47431 0
2.27734 -1.48384 0
2.30594 -1.48065 0
2.33083 -1.47597 0
2.35316 -1.47778 0
2.37555 -1.48426 0
2.39889 -1.49052 0
2.42413 -1.49213 0
2.45231 -1.48911 0
2.48179 -1.4841 0
0.0240474 0.0631769 0
0.0516969 0.0781418 0
0.0817815 0.0899516 0
0.104928 0.0997648 0
0.130559 0.0930276 0
0.147089 0.0869929 0
0.158466 0.0842745 0
0.177332 0.085631 0
0.227705 0.0848405 0
0.255834 0.0877156 0
0.275771 0.127632 0
0.307588 0.157679 0
0.325337 0.131019 0
0.35929 0.147787 0
0.381975 0.160383 0
0.389605 -0.579938 0
0.403122 -0.572756 0
0.43831 -0.581359 0
0.454228 -0.576344 0
0.48861 -0.575905 0
0.497187 -0.592183 0
0.551187 -0.568167 0
0.545299 -0.586426 0
0.590057 -0.588614 0
0.620288 -0.591746 0
0.662452 -0.577376 0
0.673094 -0.572544 0
0.692647 -0.55872 0
0.728609 -0.573945 0
0.745302 -0.601592 0
0.75588 -0.609556 0
0.821838 -0.61811 0
0.830408 -0.645176 0
0.860738 -0.657047 0
0.865208 -0.684456 0
0.897327 -0.720503 0
0.904113 -0.741812 0
0.941411 -0.786473 0
0.977862 -0.816566 0
1.0226 -0.838763 0
1.0354 -0.849439 0
1.0428 -0.861808 0
1.06403 -0.887711 0
1.08619 -0.917745 0
1.11554 -0.925217 0
1.14973 -0.956083 0
1.18636 -0.982281 0
1.19729 -0.993274 0
1.2146 -1.05582 0
1.24478 -1.05135 0
1.27936 -1.06295 0
1.31361 -1.09255 0
1.31492 -1.08213 0
1.34708 -1.10009 0
1.37576 -1.11848 0
1.40643 -1.13142 0
1.44394 -1.14015 0
1.45314 -1.15474 0
1.49347 -1.17267 0
1.52406 -1.18674 0
1.52602 -1.19874 0
1.56731 -1.22898 0
1.59266 -1.24924 0
1.61947 -1.23305 0
1.63665 -1.25722 0
1.66717 -1.26658 0
1.67447 -1.2757 0
1.70284 -1.27493 0
1.71923 -1.32466 0
1.74626 -1.31858 0
1.76496 -1.32358 0
1.81587 -1.33433 0
1.83447 -1.3553 0
1.8532 -1.36961 0
1.87877 -1.35823 0
1.90144 -1.37144 0
1.92495 -1.40161 0
1.94862 -1.39757 0
1.97399 -1.38188 0
2.00231 -1.39417 0
2.02317 -1.41486 0
2.03971 -1.42258 0
2.0656 -1.41538 0
2.09563 -1.41206 0
2.11908 -1.42099 0
2.13797 -1.43563 0
2.15823 -1.44222 0
2.18407 -1.438 0
2.21118 -1.43137 0
2.23316 -1.43795 0
2.25269 -1.45105 0
2.27726 -1.45781 0
2.30593 -1.45345 0
2.33123 -1.45045 0
2.35286 -1.45462 0
2.37506 -1.46156 0
2.39923 -1.46619 0
2.42495 -1.46602 0
2.45265 -1.46276 0
2.48159 -1.45895 0
0.029921 0.087499 0
0.0461966 0.109888 0
0.0709452 0.105396 0
0.0926347 0.0961905 0
0.128608 0.107715 0
0.151676 0.117705 0
0.173226 0.130306 0
0.208761 0.126156 0
0.212875 0.149082 0
0.227326 0.146652 0
0.246328 0.172905 0
0.302431 0.171026 0
0.333784 0.178041 0
0.356797 0.163871 0
0.392647 0.153303 0
0.379426 0.171913 0
0.425926 -0.527268 0
0.416134 -0.563772 0
0.458291 -0.557713 0
0.483613 -0.555084 0
0.520878 -0.563823 0
0.550107 -0.540996 0
0.5632 -0.577341 0
0.570998 -0.550037 0
0.624788 -0.55892 0
0.680257 -0.539902 0
0.669094 -0.520141 0
0.702252 -0.551923 0
0.727972 -0.541446 0
0.738481 -0.564737 0
0.758268 -0.589288 0
0.818811 -0.58841 0
0.852444 -0.636699 0
0.868678 -0.675075 0
0.871401 -0.665357 0
0.907148 -0.689137 0
0.930427 -0.730952 0
0.939969 -0.771875 0
0.973715 -0.770632 0
1.00506 -0.802217 0
1.02432 -0.7977 0
1.06375 -0.812958 0
1.09434 -0.833143 0
1.1041 -0.88505 0
1.11962 -0.903433 0
1.12951 -0.927029 0
1.17707 -0.963136 0
1.20664 -0.970445 0
1.2129 -1.02025 0
1.23275 -1.03098 0
1.26138 -1.04803 0
1.28442 -1.07218 0
1.32955 -1.07304 0
1.35359 -1.07152 0
1.3816 -1.10657 0
1.40692 -1.10479 0
1.43994 -1.12934 0
1.46838 -1.14439 0
1.48746 -1.15835 0
1.5081 -1.16336 0
1.53212 -1.14968 0
1.56311 -1.18128 0
1.57716 -1.20049 0
1.61715 -1.21591 0
1.63878 -1.22249 0
1.65996 -1.2557 0
1.68692 -1.24519 0
1.69638 -1.24011 0
1.73357 -1.28429 0
1.75391 -1.31157 0
1.77322 -1.29016 0
1.81021 -1.3024 0
1.83271 -1.33411 0
1.84652 -1.3342 0
1.87959 -1.33433 0
1.91052 -1.35589 0
1.92481 -1.36904 0
1.94377 -1.36372 0
1.97489 -1.36487 0
2.00373 -1.37462 0
2.02414 -1.38784 0
2.04185 -1.3938 0
2.0649 -1.38753 0
2.09265 -1.38695 0
2.11947 -1.3986 0
2.14018 -1.40983 0
2.15733 -1.41394 0
2.18158 -1.41198 0
2.21107 -1.40812 0
2.23454 -1.41303 0
2.25335 -1.42511 0
2.27664 -1.43193 0
2.30536 -1.428 0
2.33158 -1.42543 0
2.35355 -1.43076 0
2.37574 -1.43852 0
2.3996 -1.4415 0
2.42477 -1.4395 0
2.45197 -1.43648 0
2.48053 -1.43446 0
0.0360814 0.119794 0
0.0399069 0.142204 0
0.0706919 0.137978 0
0.0891472 0.132993 0
0.113594 0.13651 0
0.161956 0.131442 0
0.183697 0.165148 0
0.194046 0.170296 0
0.216875 0.194978 0
0.234449 0.193625 0
0.287543 0.182871 0
0.276866 0.210933 0
0.32029 0.210971 0
0.356521 0.189977 0
0.399089 0.196362 0
0.409298 0.193472 0
0.429012 0.189774 0
0.414415 -0.533626 0
0.455616 -0.537697 0
0.492999 -0.529331 0
0.519562 -0.519995 0
0.542358 -0.519124 0
0.562637 -0.52832 0
0.59133 -0.528434 0
0.620664 -0.511241 0
0.642565 -0.51968 0
0.686622 -0.51996 0
0.699747 -0.53346 0
0.738641 -0.524917 0
0.747968 -0.53548 0
0.772285 -0.542447 0
0.80212 -0.577263 0
0.835166 -0.576051 0
0.865736 -0.643811 0
0.881006 -0.67836 0
0.925108 -0.674622 0
0.919621 -0.689079 0
0.948732 -0.722304 0
0.950077 -0.732999 0
1.01136 -0.754556 0
1.02741 -0.764336 0
1.06197 -0.784575 0
1.08214 -0.80995 0
1.08833 -0.845335 0
1.12981 -0.88224 0
1.14891 -0.903358 0
1.16373 -0.944656 0
1.19805 -0.919923 0
1.23155 -0.960761 0
1.2512 -0.981385 0
1.25121 -0.993775 0
1.29057 -1.02947 0
1.32764 -1.04238 0
1.3454 -1.04727 0
1.38782 -1.07226 0
1.41969 -1.09832 0
1.44867 -1.12201 0
1.47404 -1.12356 0
1.48719 -1.13525 0
1.51286 -1.15331 0
1.54425 -1.13891 0
1.55903 -1.15514 0
1.58579 -1.15978 0
1.60054 -1.17427 0
1.64912 -1.20083 0
1.65439 -1.214 0
1.68467 -1.22546 0
1.71107 -1.22273 0
1.73734 -1.25767 0
1.74975 -1.27668 0
1.77917 -1.27755 0
1.80958 -1.2804 0
1.82217 -1.29377 0
1.8438 -1.30418 0
1.88234 -1.32087 0
1.91389 -1.33002 0
1.92664 -1.32972 0
1.943 -1.33444 0
1.97473 -1.34634 0
2.00437 -1.35442 0
2.02435 -1.3585 0
2.0423 -1.36068 0
2.06451 -1.36275 0
2.09153 -1.36668 0
2.11938 -1.3738 0
2.14114 -1.38026 0
2.15753 -1.38527 0
2.17991 -1.38525 0
2.21017 -1.38552 0
2.23604 -1.39092 0
2.25492 -1.39952 0
2.27597 -1.40294 0
2.30375 -1.4018 0
2.33166 -1.40258 0
2.35533 -1.40788 0
2.37709 -1.4135 0
2.39933 -1.41452 0
2.42338 -1.41208 0
2.45082 -1.41064 0
2.48032 -1.411 0
0.0284364 0.147514 0
0.0548841 0.147089 0
0.0616379 0.165687 0
0.0979086 0.17642 0
0.124041 0.165839 0
0.165663 0.165088 0
0.173237 0.21416 0
0.197609 0.215121 0
0.224898 0.212812 0
0.239561 0.209833 0
0.271585 0.227799 0
0.309514 0.245672 0
0.337602 0.245774 0
0.356671 0.214387 0
0.359688 0.224473 0
0.405544 0.210753 0
0.881143 -0.0435378 0
0.438547 -0.514885 0
0.462181 -0.511199 0
0.485936 -0.495429 0
0.505552 -0.487524 0
0.557636 -0.506979 0
0.587563 -0.497968 0
0.602135 -0.4821 0
0.635494 -0.497163 0
0.646725 -0.490059 0
0.682481 -0.508053 0
0.677937 -0.524916 0
0.72847 -0.517041 0
0.738335 -0.510756 0
0.78841 -0.492148 0
0.81186 -0.531304 0
0.853082 -0.55315 0
0.873471 -0.59379 0
0.873397 -0.611682 0
0.91004 -0.630462 0
0.950568 -0.640306 0
0.961828 -0.640029 0
0.969491 -0.749166 0
1.00727 -0.742203 0
1.03726 -0.762308 0
1.06818 -0.772548 0
1.08963 -0.7789 0
1.10667 -0.80514 0
1.13446 -0.838467 0
1.15555 -0.859778 0
1.1899 -0.911759 0
1.19794 -0.905171 0
1.22641 -0.929468 0
1.2621 -0.951141 0
1.26072 -0.984431 0
1.31373 -1.01455 0
1.34186 -1.0303 0
1.35673 -1.0247 0
1.38235 -1.05573 0
1.41371 -1.04837 0
1.43143 -1.08173 0
1.45658 -1.11502 0
1.49582 -1.10718 0
1.52392 -1.11552 0
1.54513 -1.1155 0
1.56424 -1.14661 0
1.58501 -1.14949 0
1.60392 -1.13049 0
1.64119 -1.15174 0
1.65251 -1.17561 0
1.68622 -1.20222 0
1.70568 -1.21306 0
1.72982 -1.22731 0
1.75466 -1.24402 0
1.77572 -1.26581 0
1.80204 -1.25626 0
1.82194 -1.25474 0
1.8461 -1.28336 0
1.8808 -1.30391 0
1.91171 -1.30409 0
1.92944 -1.29238 0
1.94408 -1.30128 0
1.97236 -1.32665 0
2.00399 -1.33533 0
2.02664 -1.32713 0
2.04283 -1.32901 0
2.06228 -1.33919 0
2.09072 -1.3456 0
2.12046 -1.34858 0
2.14146 -1.35102 0
2.15694 -1.35411 0
2.17928 -1.35964 0
2.21013 -1.36447 0
2.23687 -1.369 0
2.25567 -1.37074 0
2.27555 -1.37367 0
2.30217 -1.37619 0
2.33154 -1.38034 0
2.35722 -1.38529 0
2.37871 -1.38705 0
2.39854 -1.38532 0
2.42095 -1.38361 0
2.44991 -1.3857 0
2.48256 -1.39022 0
0.0184998 0.174539 0
0.0414864 0.18715 0
0.0747059 0.185029 0
0.0702981 0.209258 0
0.0908974 0.206818 0
0.149454 0.203702 0
0.165868 0.237865 0
0.206301 0.226574 0
0.233513 0.229377 0
0.266312 0.252629 0
0.298633 0.254281 0
0.308555 0.266339 0
0.327086 0.279527 0
0.364501 0.261948 0
0.36715 0.249825 0
0.378994 0.253496 0
0.426733 0.232709 0
0.414599 -0.501369 0
0.468399 -0.490179 0
0.514856 -0.491212 0
0.574582 -0.324345 0
0.575682 -0.292544 0
0.587682 -0.456674 0
0.611951 -0.458724 0
0.633094 -0.471056 0
0.64796 -0.46546 0
0.678997 -0.498637 0
0.6976 -0.496259 0
0.731018 -0.467285 0
0.757107 -0.442718 0
0.779262 -0.442556 0
0.819191 -0.506943 0
0.846431 -0.544448 0
0.882456 -0.569727 0
0.889652 -0.590875 0
0.901591 -0.620071 0
0.933599 -0.601605 0
0.945729 -0.631474 0
1.33299 -0.544137 0
1.00587 -0.730973 0
1.03048 -0.749356 0
1.06208 -0.757895 0
1.07857 -0.769686 0
1.1015 -0.788903 0
1.14713 -0.788733 0
1.16794 -0.807473 0
1.20615 -0.898694 0
1.19821 -0.881187 0
1.22335 -0.908412 0
1.25044 -0.925759 0
1.27395 -0.907959 0
1.28547 -0.978405 0
1.3257 -1.00118 0
1.34953 -1.00907 0
1.38323 -1.01206 0
1.41902 -1.01957 0
1.44096 -1.05134 0
1.4583 -1.08001 0
1.45845 -1.10097 0
1.50327 -1.08163 0
1.53703 -1.09182 0
1.57359 -1.10504 0
1.57011 -1.09489 0
1.60056 -1.10797 0
1.64071 -1.12108 0
1.65884 -1.15966 0
1.66514 -1.17625 0
1.70214 -1.18431 0
1.74363 -1.20722 0
1.74815 -1.21631 0
1.77957 -1.24701 0
1.80441 -1.23646 0
1.82198 -1.2173 0
1.84781 -1.25492 0
1.88004 -1.29269 0
1.90851 -1.27966 0
1.93005 -1.2546 0
1.94547 -1.27189 0
1.96928 -1.30679 0
2.00454 -1.31531 0
2.0311 -1.30002 0
2.04213 -1.29533 0
2.05803 -1.31326 0
2.09045 -1.32774 0
2.12345 -1.32392 0
2.14178 -1.3175 0
2.15496 -1.32324 0
2.17856 -1.33534 0
2.21125 -1.34432 0
2.23823 -1.34424 0
2.25604 -1.3422 0
2.27419 -1.34379 0
2.30009 -1.35076 0
2.33135 -1.3588 0
2.35958 -1.36181 0
2.38092 -1.35961 0
2.39725 -1.35518 0
2.41717 -1.35549 0
2.44888 -1.36299 0
2.4877 -1.37225 0
</DataArray>
</Points>
<PointData>
<DataArray NumberOfComponents='1' type='Int32' Name='Particle Type' format='ascii'>
0
0
0
0
0
0
0
0
0
0
0
0
0
0
0
0
0
0
0
0
0
0
1
1
1
1
1
1
1
1
1
1
1
1
1
1
1
1
1
1
1
1
1
1
1
1
1
1
1
1
1
1
1
1
1
1
1
1
1
1
1
1
1
1
1
1
1
1
1
1
1
1
1
1
1
1
1
1
1
1
1
1
1
1
1
1
1
1
1
1
1
1
1
1
1
1
1
1
1
1
1
1
1
1
1
1
1
1
1
1
1
1
1
1
1
1
1
1
1
1
1
1
1
1
1
1
1
1
1
1
1
1
1
1
1
1
1
1
1
1
1
1
1
1
1
1
1
1
1
1
1
1
1
1
1
1
1
1
1
1
1
1
1
1
1
1
1
1
1
1
1
1
1
1
1
1
1
1
1
1
1
1
1
1
1
1
1
1
1
1
1
1
1
1
1
1
1
1
1
1
1
1
1
1
1
1
1
1
1
1
1
1
1
1
1
1
1
1
1
1
1
1
1
1
1
1
1
1
1
1
1
1
1
1
1
1
1
1
1
1
1
1
1
1
1
1
1
1
1
1
1
1
1
1
1
1
1
1
1
1
1
1
1
1
1
1
1
1
1
1
1
1
1
1
1
1
1
1
1
1
1
1
1
1
1
1
1
1
1
1
1
1
1
1
1
1
1
1
1
1
1
1
1
1
1
1
1
1
1
1
1
1
1
1
1
1
1
1
1
1
1
1
1
1
1
1
1
1
1
1
1
1
1
1
1
1
1
1
1
1
1
1
1
1
1
1
1
1
1
1
1
1
1
1
1
1
1
1
1
1
1
1
1
1
1
1
1
1
1
1
1
1
1
1
1
1
1
1
1
1
1
1
1
1
1
1
1
1
1
1
1
1
1
1
1
1
1
1
1
1
1
1
1
1
1
1
1
1
1
1
1
1
1
1
1
1
1
1
1
1
1
1
1
1
1
1
1
1
1
1
1
1
1
1
1
1
1
1
1
1
1
1
1
1
1
1
1
1
1
1
1
1
1
1
1
1
1
1
1
1
1
1
1
1
1
1
1
1
1
1
1
1
1
1
1
1
1
1
1
1
1
1
1
1
1
1
1
1
1
1
1
1
1
1
1
1
1
1
1
1
1
1
1
1
1
1
1
1
1
1
1
1
1
1
1
1
1
1
1
1
1
1
1
1
1
1
1
1
1
1
1
1
1
1
1
1
1
1
1
1
1
1
1
1
1
1
1
1
1
1
1
1
1
1
1
1
1
1
1
1
1
1
1
1
1
1
1
1
1
1
1
1
1
1
1
1
1
1
1
1
1
1
1
1
1
1
1
1
1
1
1
1
1
1
1
1
1
1
1
1
1
1
1
1
1
1
1
1
1
1
1
1
1
1
1
1
1
1
1
1
1
1
1
1
1
1
1
1
1
1
1
1
1
1
1
1
1
1
1
1
1
1
1
1
1
1
1
1
1
1
1
1
1
1
1
1
1
1
1
1
1
1
1
1
1
1
1
1
1
1
1
1
1
1
1
1
1
1
1
1
1
1
1
1
1
1
1
1
1
1
1
1
1
1
1
1
1
1
1
1
1
1
1
1
1
1
1
1
1
1
1
1
1
1
1
1
1
1
1
1
1
1
1
1
1
1
1
1
1
1
1
1
1
1
1
1
1
1
1
1
1
1
1
1
1
1
1
1
1
1
1
1
1
1
1
1
1
1
1
1
1
1
1
1
1
1
1
1
1
1
1
1
1
1
1
1
1
1
1
1
1
1
1
1
1
1
1
1
1
1
1
1
1
1
1
1
1
1
1
1
1
1
1
1
1
1
1
1
</DataArray>
<DataArray NumberOfComponents='3' type='Float64' Name='Velocity' format='ascii'>
-0.735997 -0.2641 0
-0.58728 0.035594 0
-1.07722 -0.0829008 0
-0.620877 0.952867 0
-0.788915 -0.18557 0
-0.468859 0.258824 0
-1.28465 -0.0832856 0
-0.772271 0.333739 0
0.598271 -0.455134 0
-0.569497 -1.09535 0
0.192672 -0.588781 0
-0.242944 -0.465911 0
-0.409616 -0.181202 0
0.376891 -0.837306 0
0.0480942 -1.01038 0
-0.425703 -0.836261 0
-0.272176 -0.263387 0
0.0826538 -0.639002 0
-0.855123 -0.261107 0
0.918981 -0.937343 0
0.0245939 -0.7824 0
-0.0083596 -0.175386 0
0.126717 -0.68608 0
0.533118 -0.957217 0
-0.347415 -1.34056 0
-0.656414 -1.89786 0
-0.180557 -0.673546 0
0.230657 -0.763983 0
0.309145 -0.163529 0
1.04244 0.496953 0
-0.545551 -0.983209 0
0.451113 -0.0195511 0
-0.323904 -0.797211 0
0.29523 0.187114 0
-0.252794 -0.926635 0
0.256508 -0.476449 0
0.279773 -0.476916 0
0.320983 -0.300368 0
0.394092 -1.01845 0
-0.926651 -0.933169 0
-0.179406 0.0801085 0
-0.238186 -0.471528 0
0.00456402 1.89145 0
-0.511353 -1.03702 0
-0.463646 -0.0599554 0
-0.420869 0.699472 0
0.0920194 -0.206355 0
1.01284 0.181293 0
-0.0676962 -0.643496 0
0.266808 0.198062 0
-0.0101045 -0.531314 0
-0.287343 -0.375864 0
-0.222524 -0.546736 0
-0.836646 0.10623 0
-0.350546 -0.83153 0
0.00677154 -0.271847 0
1.31067 -0.704236 0
-0.953751 -0.600774 0
-0.488714 0.0387754 0
-0.25801 -0.874411 0
-0.290544 -1.24715 0
0.51466 -0.699752 0
0.0829794 -0.769638 0
1.33198 0.0874206 0
-0.478864 -0.341055 0
-0.911412 -0.198324 0
0.808039 -0.430779 0
0.356294 0.394707 0
-0.00227862 0.699203 0
-0.381657 0.0532096 0
-0.674628 -0.422754 0
0.360329 -0.745221 0
-0.882229 0.0751519 0
0.260054 -0.337103 0
0.475144 -0.0435567 0
-0.360577 -0.733376 0
-0.821336 -0.602669 0
0.789941 -0.53863 0
-0.239836 0.553236 0
0.327974 -1.07726 0
0.382571 -0.641203 0
-0.536789 0.617072 0
0.0136479 0.116214 0
0.0203335 -0.546308 0
-0.0933291 -0.62841 0
-0.0804969 -0.223174 0
-0.0255126 -0.110421 0
0.112206 -0.271363 0
0.49629 -0.515787 0
-0.12203 -0.349306 0
-0.0192655 -0.263366 0
-0.0706196 -0.11179 0
-0.141382 -0.317192 0
0.486301 -0.361204 0
-0.202718 -0.0780361 0
-0.172919 -0.181288 0
0.115673 -0.381761 0
0.159142 -0.382111 0
0.027152 -0.172392 0
-0.0477782 -0.141547 0
-0.0269836 -0.275316 0
0.0373036 -0.272014 0
0.128006 -0.108301 0
0.0774675 -0.112141 0
-0.164516 -0.265415 0
-0.373697 -0.337311 0
-0.160792 -0.228755 0
0.376412 -0.0448105 0
0.482332 0.540699 0
-0.663765 -0.763038 0
0.732179 -0.2806 0
-0.152268 0.473851 0
0.327848 0.0246243 0
0.55481 -0.350945 0
0.635518 1.3036 0
-0.763831 -0.154643 0
-1.10833 -0.582748 0
-0.391415 -0.104049 0
-0.306401 0.660525 0
-0.475422 -0.605236 0
-0.190597 -0.856924 0
0.242906 1.06805 0
-0.137545 -0.449574 0
-0.181287 -0.998302 0
0.0676746 -1.10669 0
1.25325 -0.701961 0
-0.490944 -2.01855 0
0.149688 -2.1277 0
-0.0431954 -0.233124 0
0.454439 -1.52073 0
0.520437 -1.38691 0
-0.329377 -1.28311 0
-0.292078 -1.11318 0
-0.542511 -0.840602 0
0.517554 -0.321502 0
0.0890609 -0.875193 0
0.214079 -2.26632 0
-0.140786 0.423486 0
-0.0785376 -1.76735 0
-0.272885 -0.638313 0
0.243756 0.132262 0
-0.0425935 -0.0264042 0
0.203631 -0.855806 0
-0.617268 0.360469 0
0.162699 -0.5645 0
-0.456302 -0.0785374 0
-0.08612 -1.17753 0
0.0211657 -0.525239 0
-0.343927 -0.460776 0
0.533426 -0.216731 0
-0.127345 -0.0144038 0
-0.252599 -0.458704 0
0.507573 -0.668492 0
-1.32531 -1.67476 0
-0.82699 -0.0849303 0
0.240475 -0.636486 0
0.150142 0.96355 0
-0.814391 -1.87389 0
0.748996 0.109144 0
0.836726 -0.594657 0
-0.310816 0.660429 0
-0.75964 -0.509414 0
-1.16392 -0.453892 0
0.0774586 0.927542 0
-0.533222 0.447574 0
-0.797662 -0.243982 0
0.142104 -0.958218 0
0.0304693 -1.27227 0
0.337238 -0.62574 0
0.222462 0.0170393 0
-0.237187 -0.665879 0
0.151741 -0.14361 0
0.394436 -0.231095 0
-0.0188074 -0.0461173 0
0.497296 -0.123201 0
1.28605 -0.0933927 0
-0.415392 -0.580482 0
-0.428195 -0.641893 0
0.449837 -0.235743 0
-0.199612 -0.212769 0
-0.178537 -0.354407 0
0.211892 -0.283359 0
-0.296959 -0.0440462 0
0.331187 -0.199165 0
-0.0449123 -0.23078 0
-0.380222 -0.521513 0
0.0469162 -0.65123 0
0.33975 -0.246567 0
0.293929 -0.158977 0
0.158753 -0.360921 0
-0.372841 -0.238228 0
-0.293202 -0.267766 0
0.305506 -0.289876 0
0.256944 -0.094601 0
-0.0966403 -0.139659 0
-0.154857 -0.388968 0
0.120112 -0.471748 0
0.173665 -0.196699 0
-0.0163506 -0.0897388 0
-0.0890132 -0.177918 0
-0.0235454 -0.295949 0
0.069797 -0.284203 0
0.0924588 -0.159304 0
0.00611119 -0.121713 0
-0.122895 -0.208569 0
-0.186419 -0.300976 0
-0.0594385 -0.29645 0
0.183215 -0.273134 0
0.418541 0.910129 0
-0.642476 0.190076 0
0.261548 0.802897 0
-0.0646722 0.19486 0
0.372408 0.724628 0
0.39887 0.715681 0
-0.723696 0.645254 0
-0.829748 0.384502 0
-0.0218689 0.415234 0
-0.204752 -0.029691 0
0.33758 -0.154261 0
-0.0298502 0.89454 0
-0.126965 0.111073 0
0.216085 0.697693 0
-0.0244934 -0.0394283 0
0.782361 -0.187161 0
-0.880613 -0.218524 0
-0.318545 -1.28251 0
0.033669 -1.05896 0
-0.249945 -0.476972 0
1.0985 -0.769891 0
0.254692 -0.793596 0
-0.117807 -0.466675 0
-1.25817 -1.44207 0
0.491152 -0.350187 0
1.15219 -0.517061 0
-0.229693 -1.17377 0
-0.425097 -0.465986 0
1.13617 0.505854 0
-0.481943 -0.39139 0
-0.136865 -1.18851 0
-0.514232 -0.874256 0
-0.556766 0.700948 0
0.821059 -0.719701 0
0.2298 -0.0326466 0
-0.62649 -0.669785 0
-0.10481 -0.688296 0
1.16826 0.0523601 0
-0.845962 -0.796726 0
0.471894 -0.130802 0
-0.0628832 0.621548 0
-0.173586 -0.466634 0
-0.381692 -1.3821 0
0.373306 -0.787906 0
-0.128511 0.0874852 0
-0.280006 -1.27808 0
-0.0623961 -1.35539 0
0.316815 0.754119 0
0.980274 -0.0663128 0
0.551172 -0.869476 0
0.330959 -1.10731 0
0.103543 -1.55942 0
0.164117 -1.38949 0
0.551373 -0.0742229 0
-0.0375163 -0.178574 0
-0.212894 -0.402954 0
1.14107 0.593903 0
0.262389 0.416699 0
0.00616921 -2.01463 0
-0.445054 -0.809106 0
0.408621 -0.661783 0
0.435574 -0.79316 0
-0.566762 -0.20195 0
-0.378499 -0.106695 0
-0.300437 0.0492339 0
-0.0813268 -0.429389 0
0.550129 0.538884 0
-0.549025 -0.629375 0
0.57323 -0.176202 0
0.209132 -0.818588 0
-0.622971 -1.01557 0
-0.377116 0.467026 0
0.0182453 0.0680592 0
0.21284 -0.981259 0
0.226468 -0.27024 0
-0.1465 0.381834 0
0.0210853 -0.300334 0
0.0250891 -0.844698 0
-0.148194 -0.689111 0
0.217336 -0.0662766 0
0.356405 0.21765 0
-0.115516 -0.23091 0
-0.289026 -0.710871 0
0.0122377 -0.353889 0
0.161723 0.0161167 0
0.168431 -0.0835656 0
0.0326462 -0.25705 0
-0.116228 -0.509301 0
0.00335504 -0.426581 0
0.17926 -0.161188 0
0.0659163 0.0211719 0
-0.135457 -0.176995 0
-0.0638317 -0.398603 0
0.0822074 -0.265228 0
0.0759768 -0.166643 0
-0.0181228 -0.172222 0
-0.0854014 -0.213651 0
-0.0653185 -0.22429 0
0.0168372 -0.233698 0
0.0772812 -0.287818 0
-0.978789 -0.850436 0
-0.226821 -1.38086 0
0.310421 -0.163197 0
-1.35851 -0.199759 0
0.698499 0.414207 0
-0.743934 -0.222542 0
0.224894 0.677396 0
0.942935 0.241021 0
0.785243 0.267001 0
0.104548 0.294545 0
-0.678649 0.0852929 0
-0.0561799 -0.513087 0
0.946333 -0.774134 0
-0.671802 -0.241138 0
0.485256 0.543119 0
-0.196826 -0.4339 0
0.235709 -0.638084 0
0.263036 -0.90951 0
-0.566237 -1.52015 0
-1.494 -1.2711 0
-0.355939 -0.110891 0
-0.290757 -0.803246 0
-1.65806 -0.691345 0
-0.779091 -1.75741 0
-1.09122 -0.599318 0
-0.0916832 0.216047 0
0.500809 0.0752403 0
0.296309 -1.47664 0
0.00536277 -0.0191861 0
0.00925804 -1.21559 0
-0.294002 -1.14259 0
0.185708 -1.41759 0
-0.834437 0.0261263 0
0.528045 0.282023 0
-0.08306 0.0342574 0
-0.241538 -0.568114 0
0.40821 -0.208479 0
0.460028 0.0498571 0
0.218692 -0.281709 0
0.497018 -1.3734 0
-0.451694 -0.419187 0
1.06033 -0.754259 0
0.340762 -0.831894 0
0.283355 0.526812 0
-0.597126 -0.133276 0
0.703412 -0.206714 0
0.364155 -0.626262 0
-0.0681132 0.248647 0
-0.546321 -0.467749 0
-0.758597 -0.82353 0
-0.597771 -0.18995 0
-0.357191 -0.26546 0
0.286486 -0.245232 0
-0.261046 0.162906 0
-0.877556 -0.570922 0
0.247492 -0.814612 0
-0.0787264 -0.868832 0
0.811467 0.0176333 0
-0.738875 -0.479039 0
0.432875 0.346729 0
0.294944 -0.167252 0
-1.3159 -0.176604 0
0.23823 -0.0941589 0
1.2465 -0.275662 0
-0.578062 -0.626416 0
0.316455 -0.429969 0
-0.0189066 -0.728024 0
-0.197228 0.26346 0
-0.102801 0.422498 0
0.767474 -0.743913 0
-0.659567 -0.142728 0
-0.299614 -0.165508 0
0.265483 0.111433 0
0.0483938 -0.572913 0
0.0545914 -0.722719 0
0.0792625 0.405045 0
0.01193 0.0340527 0
0.0472989 -1.07308 0
-0.076247 -0.596554 0
-0.0295929 0.223357 0
0.227403 0.0391148 0
0.130534 -0.44869 0
-0.164142 -0.69295 0
-0.0902267 -0.335061 0
0.138296 0.0748875 0
0.196348 -0.015924 0
0.0440601 -0.325804 0
-0.0956672 -0.659692 0
-0.0103409 -0.395409 0
0.136492 -0.00488579 0
0.0729333 0.036064 0
-0.108299 -0.260122 0
-0.084885 -0.411119 0
0.0690224 -0.263387 0
0.0747669 -0.186264 0
-0.0278395 -0.199021 0
-0.0638894 -0.210223 0
0.000929112 -0.182357 0
0.0484393 -0.149153 0
0.00645493 -0.139024 0
-0.276808 0.412314 0
0.440777 -0.631007 0
-0.755047 0.0235653 0
0.227303 1.14513 0
-0.0661845 -0.715463 0
0.518697 -0.63578 0
0.719426 0.439314 0
0.896164 1.07575 0
-0.644885 0.435263 0
-0.00667127 -0.60358 0
-0.841024 -0.331082 0
-1.0413 0.0919557 0
-0.0349299 0.13389 0
-0.444465 0.540614 0
0.119168 -0.162976 0
-0.0842946 -0.409306 0
-0.600515 -0.777263 0
-0.267549 -0.888454 0
0.619191 -0.435147 0
-0.955217 -1.45911 0
0.215187 -1.85015 0
1.07833 0.345298 0
-0.282295 -1.73343 0
-0.795739 -0.992595 0
-0.246036 -0.923744 0
-1.22849 -1.43956 0
0.177487 -0.220204 0
-0.000927852 -1.74195 0
1.20755 -0.0842438 0
-0.672813 -0.343219 0
-0.725317 -0.116068 0
0.727234 -0.136181 0
0.673974 -0.466193 0
-0.781549 0.0048154 0
0.502212 -0.273639 0
-0.725732 -0.902215 0
-0.740154 -0.21014 0
-0.247032 -0.165179 0
-0.0904894 0.315118 0
-0.358263 -0.748248 0
0.240918 -0.207476 0
-0.55583 -0.379253 0
0.162139 -0.939529 0
0.395793 -0.735242 0
0.0854045 0.0286154 0
0.00500817 0.250325 0
-0.111573 -0.303568 0
-0.10719 -1.45612 0
0.477692 -0.834027 0
0.786386 -0.0368679 0
-0.0372235 0.167752 0
-0.346682 -0.12618 0
-0.0119486 0.165378 0
0.154483 0.0451066 0
-0.408942 -0.0959321 0
-0.97502 -0.362963 0
0.711102 -0.509719 0
0.0366928 0.371002 0
-0.068251 -0.0319489 0
0.325684 -0.625879 0
0.648448 0.522286 0
-0.0420931 -0.634117 0
-0.354147 0.312745 0
-0.386376 -0.151071 0
-0.121826 -0.810608 0
-0.0411935 -0.0135673 0
0.315008 -1.5286 0
0.172069 0.223844 0
-0.214379 0.684502 0
-0.445982 -1.07225 0
-0.0260423 -1.16965 0
-0.490668 0.240406 0
0.344869 -0.100334 0
0.029375 -0.796898 0
-0.365667 -0.104325 0
0.0966657 0.167233 0
0.348538 -0.437634 0
-0.0402332 -0.623829 0
-0.223258 -0.27004 0
0.0261955 -0.075568 0
0.224192 -0.0853779 0
0.148849 -0.513383 0
-0.043467 -0.613928 0
-0.119722 -0.168593 0
0.0171055 0.0147912 0
0.219715 -0.13825 0
0.149418 -0.370508 0
-0.129827 -0.528003 0
-0.0991837 -0.384734 0
0.13367 -0.050663 0
0.12415 0.0589954 0
-0.0713076 -0.238011 0
-0.098166 -0.438439 0
0.0489123 -0.305079 0
0.0604949 -0.159943 0
-0.0393762 -0.167545 0
-0.0533467 -0.223203 0
0.0188684 -0.194678 0
0.0338874 -0.0975226 0
-0.0455628 0.00286725 0
0.219163 0.63636 0
-0.942571 0.639454 0
0.317762 0.239167 0
-0.295604 -0.0845314 0
-0.191636 0.129484 0
0.42946 1.15825 0
-0.5039 -0.432342 0
-0.307146 0.69406 0
-0.00155022 0.496892 0
-0.603775 -0.37321 0
0.111054 -0.274738 0
-0.0811488 -0.474575 0
-0.225072 0.0527504 0
0.496332 0.331294 0
0.423142 0.541079 0
0.645346 0.262753 0
-0.157098 -0.624722 0
0.0755557 -1.16778 0
0.458004 -1.33589 0
0.420121 -1.07616 0
-1.16795 -1.1424 0
-0.628268 -0.975841 0
0.692642 0.190584 0
-1.01833 -0.640473 0
1.33991 -0.819989 0
-0.040971 0.126775 0
-0.533802 -1.37836 0
0.179256 -1.32501 0
0.704439 -0.889006 0
-0.202998 -0.130904 0
0.00803624 0.503407 0
-0.0452208 0.0355382 0
0.610785 -0.283208 0
0.59479 -0.449051 0
-0.658849 -0.378854 0
0.186371 0.213494 0
0.195037 0.0478001 0
-0.0286389 -0.332895 0
0.348378 -0.620545 0
0.23 -0.774594 0
0.280758 -0.75123 0
-0.638364 -0.764488 0
0.108355 -0.473524 0
-0.619165 -0.865559 0
0.361787 0.792072 0
0.0294723 -1.0718 0
1.24507 -0.173694 0
-0.247254 -0.719698 0
-0.309859 -0.873995 0