<?xml version='1.0' encoding='UTF-8'?>
<VTKFile byte_order='LittleEndian' version='0.1' type = 'UnstructuredGrid'>
<UnstructuredGrid>
<FieldData>
<DataArray type='Float64' Name='Time' NumberOfComponents='1' NumberOfTuples='1' format='ascii'>
1.401
</DataArray>
</FieldData>
<Piece NumberOfCells='808' NumberOfPoints='808'>
<Points>
<DataArray NumberOfComponents='3' type='Float64' Name='position' format='ascii'>
0 0 0
0 0.025 0
0 0.05 0
0 0.075 0
0 0.1 0
0 0.125 0
0 0.15 0
0 0.175 0
0.025 0 0
0.05 0 0
0.075 0 0
0.1 0 0
0.125 0 0
0.15 0 0
0.175 0 0
0.2 0 0
0.225 0 0
0.25 0 0
0.275 0 0
0.3 0 0
0.325 0 0
0.35 0 0
0.378837 -0.0220951 0
0.403706 -0.0341306 0
0.428878 -0.0445057 0
0.453821 -0.0535606 0
0.478685 -0.0619538 0
0.503542 -0.0699746 0
0.528397 -0.0776195 0
0.553425 -0.0846691 0
0.578245 -0.0914635 0
0.603155 -0.0980705 0
0.628145 -0.104433 0
0.652925 -0.110541 0
0.677788 -0.116336 0
0.702716 -0.121908 0
0.727591 -0.127148 0
0.752544 -0.132 0
0.777489 -0.136726 0
0.802326 -0.141409 0
0.827176 -0.145895 0
0.852065 -0.150219 0
0.876883 -0.154463 0
0.901635 -0.158568 0
0.926429 -0.162507 0
0.951309 -0.166365 0
0.976252 -0.170158 0
1.00125 -0.173778 0
1.02631 -0.177126 0
1.05141 -0.180194 0
1.07652 -0.183003 0
1.10159 -0.185528 0
1.12661 -0.187716 0
1.1516 -0.189545 0
1.17655 -0.19105 0
1.20147 -0.192293 0
1.22637 -0.193322 0
1.25125 -0.19416 0
1.27612 -0.194814 0
1.30098 -0.195292 0
1.32584 -0.195613 0
1.3507 -0.195807 0
1.37556 -0.195908 0
1.40044 -0.195948 0
1.42533 -0.195953 0
1.45023 -0.19594 0
1.47516 -0.195922 0
1.50011 -0.195904 0
1.52507 -0.195889 0
1.55004 -0.195879 0
1.57502 -0.195871 0
1.60001 -0.195867 0
1.62501 -0.195864 0
1.65 -0.195862 0
1.675 -0.195861 0
1.7 -0.195861 0
1.725 -0.19586 0
1.75 -0.19586 0
1.775 -0.19586 0
1.8 -0.19586 0
1.825 -0.19586 0
1.85 -0.19586 0
1.875 -0.19586 0
1.9 -0.19586 0
1.925 -0.19586 0
1.95 -0.19586 0
1.975 -0.19586 0
2 -0.19586 0
2.025 -0.19586 0
2.05 -0.19586 0
2.075 -0.19586 0
2.1 -0.19586 0
2.125 -0.19586 0
2.15 -0.19586 0
2.175 -0.19586 0
2.2 -0.19586 0
2.225 -0.19586 0
2.25 -0.19586 0
2.275 -0.19586 0
2.3 -0.19586 0
2.325 -0.19586 0
2.35 -0.19586 0
2.375 -0.19586 0
2.4 -0.19586 0
2.425 -0.19586 0
2.45 -0.19586 0
2.475 -0.19586 0
2.5 -0.19586 0
0.0249404 0.024584 0
0.0498985 0.0243476 0
0.0748397 0.0241859 0
0.0998127 0.0239053 0
0.12477 0.023712 0
0.149818 0.0232686 0
0.174872 0.0230051 0
0.199757 0.022507 0
0.224845 0.0219046 0
0.249933 0.0214476 0
0.274964 0.020374 0
0.300207 0.0188501 0
0.325844 0.0161624 0
0.353188 0.0102994 0
0.379306 -0.000666672 0
0.4039 -0.0107438 0
0.428863 -0.0203727 0
0.453807 -0.0292357 0
0.478715 -0.0374871 0
0.503575 -0.0453517 0
0.528466 -0.0529003 0
0.553453 -0.0598846 0
0.578329 -0.0665931 0
0.603178 -0.073209 0
0.628053 -0.0795905 0
0.652899 -0.0857028 0
0.677813 -0.0914963 0
0.702746 -0.0970016 0
0.72763 -0.102205 0
0.752533 -0.107103 0
0.77744 -0.111825 0
0.802303 -0.116447 0
0.827165 -0.120908 0
0.852035 -0.125232 0
0.876858 -0.129469 0
0.901636 -0.133585 0
0.926442 -0.137562 0
0.951322 -0.141445 0
0.97627 -0.145237 0
1.00127 -0.148851 0
1.02633 -0.152198 0
1.05142 -0.155258 0
1.07651 -0.158041 0
1.10158 -0.160531 0
1.12661 -0.162689 0
1.15159 -0.164503 0
1.17654 -0.166004 0
1.20147 -0.167245 0
1.22636 -0.168271 0
1.25125 -0.169105 0
1.27612 -0.169754 0
1.30098 -0.170229 0
1.32584 -0.17055 0
1.3507 -0.170748 0
1.37557 -0.170855 0
1.40044 -0.170902 0
1.42533 -0.170916 0
1.45024 -0.170912 0
1.47517 -0.170901 0
1.50011 -0.17089 0
1.52507 -0.17088 0
1.55004 -0.170873 0
1.57503 -0.170868 0
1.60001 -0.170864 0
1.62501 -0.170862 0
1.65 -0.170861 0
1.675 -0.170861 0
1.7 -0.17086 0
1.725 -0.17086 0
1.75 -0.17086 0
1.775 -0.17086 0
1.8 -0.17086 0
1.825 -0.17086 0
1.85 -0.17086 0
1.875 -0.17086 0
1.9 -0.17086 0
1.925 -0.17086 0
1.95 -0.17086 0
1.975 -0.17086 0
2 -0.17086 0
2.025 -0.17086 0
2.05 -0.17086 0
2.075 -0.17086 0
2.1 -0.17086 0
2.125 -0.17086 0
2.15 -0.17086 0
2.175 -0.17086 0
2.2 -0.17086 0
2.225 -0.17086 0
2.25 -0.17086 0
2.275 -0.17086 0
2.3 -0.17086 0
2.325 -0.17086 0
2.35 -0.17086 0
2.375 -0.17086 0
2.4 -0.17086 0
2.425 -0.17086 0
2.45 -0.17086 0
2.475 -0.17086 0
2.5 -0.17086 0
0.0248836 0.0492398 0
0.0498322 0.0486958 0
0.0747929 0.0483351 0
0.099811 0.0477656 0
0.124789 0.0475269 0
0.149792 0.0469952 0
0.174867 0.0465323 0
0.199814 0.0457958 0
0.224873 0.0447305 0
0.249989 0.0436876 0
0.275222 0.0418336 0
0.300785 0.0394991 0
0.326682 0.0358874 0
0.353111 0.0298071 0
0.379066 0.0211585 0
0.404069 0.0123459 0
0.428988 0.00355054 0
0.453894 -0.00481502 0
0.478765 -0.0127598 0
0.503599 -0.0205642 0
0.528463 -0.0279382 0
0.553408 -0.0349134 0
0.578323 -0.0416511 0
0.603198 -0.0482815 0
0.62806 -0.0546909 0
0.652928 -0.0607909 0
0.677847 -0.0665515 0
0.702766 -0.0720052 0
0.727641 -0.0772068 0
0.752517 -0.08214 0
0.777403 -0.0868609 0
0.802274 -0.0914357 0
0.827144 -0.0958678 0
0.852012 -0.100195 0
0.876841 -0.104445 0
0.901633 -0.108584 0
0.926446 -0.112597 0
0.951329 -0.116506 0
0.976283 -0.120303 0
1.00129 -0.123914 0
1.02635 -0.127258 0
1.05143 -0.130307 0
1.07652 -0.133064 0
1.10158 -0.135521 0
1.12661 -0.137654 0
1.15159 -0.139457 0
1.17654 -0.140958 0
1.20146 -0.142202 0
1.22636 -0.143229 0
1.25125 -0.144059 0
1.27612 -0.144703 0
1.30099 -0.145174 0
1.32585 -0.145493 0
1.35071 -0.145693 0
1.37557 -0.145805 0
1.40045 -0.14586 0
1.42534 -0.145882 0
1.45024 -0.145886 0
1.47517 -0.145882 0
1.50011 -0.145877 0
1.52507 -0.145871 0
1.55005 -0.145867 0
1.57503 -0.145864 0
1.60002 -0.145863 0
1.62501 -0.145861 0
1.65 -0.145861 0
1.675 -0.14586 0
1.7 -0.14586 0
1.725 -0.14586 0
1.75 -0.14586 0
1.775 -0.14586 0
1.8 -0.14586 0
1.825 -0.14586 0
1.85 -0.14586 0
1.875 -0.14586 0
1.9 -0.14586 0
1.925 -0.14586 0
1.95 -0.14586 0
1.975 -0.14586 0
2 -0.14586 0
2.025 -0.14586 0
2.05 -0.14586 0
2.075 -0.14586 0
2.1 -0.14586 0
2.125 -0.14586 0
2.15 -0.14586 0
2.175 -0.14586 0
2.2 -0.14586 0
2.225 -0.14586 0
2.25 -0.14586 0
2.275 -0.14586 0
2.3 -0.14586 0
2.325 -0.14586 0
2.35 -0.14586 0
2.375 -0.14586 0
2.4 -0.14586 0
2.425 -0.14586 0
2.45 -0.14586 0
2.475 -0.14586 0
2.5 -0.14586 0
0.0248957 0.0741196 0
0.0498484 0.0734124 0
0.0748406 0.0728985 0
0.0998442 0.072232 0
0.124837 0.0717327 0
0.149842 0.0709787 0
0.174917 0.0702908 0
0.199991 0.0693828 0
0.225103 0.0680052 0
0.250264 0.0664775 0
0.275593 0.0640425 0
0.301197 0.0610697 0
0.327024 0.0570255 0
0.353017 0.0509639 0
0.378764 0.0436288 0
0.403979 0.0356766 0
0.428945 0.0274876 0
0.453875 0.0194802 0
0.47878 0.0118175 0
0.503614 0.00434255 0
0.528453 -0.00297222 0
0.553378 -0.00998417 0
0.57831 -0.0167746 0
0.603213 -0.0234182 0
0.628088 -0.0297746 0
0.652965 -0.035803 0
0.677873 -0.0415459 0
0.702768 -0.0470022 0
0.727625 -0.0522039 0
0.75249 -0.0571517 0
0.777369 -0.0618685 0
0.802243 -0.0664148 0
0.82712 -0.0708301 0
0.851996 -0.0751602 0
0.876835 -0.079419 0
0.901634 -0.0835811 0
0.926448 -0.0876304 0
0.95133 -0.0915711 0
0.976287 -0.0953807 0
1.0013 -0.0989896 0
1.02635 -0.102326 0
1.05143 -0.105361 0
1.07652 -0.108093 0
1.10159 -0.110518 0
1.12661 -0.112625 0
1.1516 -0.114416 0
1.17654 -0.115917 0
1.20146 -0.117167 0
1.22636 -0.118196 0
1.25124 -0.119024 0
1.27612 -0.119662 0
1.30099 -0.120126 0
1.32585 -0.120441 0
1.35071 -0.12064 0
1.37558 -0.120756 0
1.40045 -0.120818 0
1.42534 -0.120848 0
1.45025 -0.12086 0
1.47517 -0.120864 0
1.50011 -0.120864 0
1.52507 -0.120863 0
1.55005 -0.120862 0
1.57503 -0.120861 0
1.60002 -0.120861 0
1.62501 -0.12086 0
1.65 -0.12086 0
1.675 -0.12086 0
1.7 -0.12086 0
1.725 -0.12086 0
1.75 -0.12086 0
1.775 -0.12086 0
1.8 -0.12086 0
1.825 -0.12086 0
1.85 -0.12086 0
1.875 -0.12086 0
1.9 -0.12086 0
1.925 -0.12086 0
1.95 -0.12086 0
1.975 -0.12086 0
2 -0.12086 0
2.025 -0.12086 0
2.05 -0.12086 0
2.075 -0.12086 0
2.1 -0.12086 0
2.125 -0.12086 0
2.15 -0.12086 0
2.175 -0.12086 0
2.2 -0.12086 0
2.225 -0.12086 0
2.25 -0.12086 0
2.275 -0.12086 0
2.3 -0.12086 0
2.325 -0.12086 0
2.35 -0.12086 0
2.375 -0.12086 0
2.4 -0.12086 0
2.425 -0.12086 0
2.45 -0.12086 0
2.475 -0.12086 0
2.5 -0.12086 0
0.0249365 0.0990087 0
0.0499021 0.0981737 0
0.0748901 0.0975441 0
0.0999194 0.0967211 0
0.124937 0.0960548 0
0.149975 0.0951259 0
0.175034 0.0941509 0
0.200162 0.0929912 0
0.225362 0.0913817 0
0.250608 0.0895388 0
0.275967 0.0868405 0
0.301506 0.0834813 0
0.327163 0.079136 0
0.352953 0.0733832 0
0.378515 0.0665694 0
0.403738 0.0592972 0
0.42877 0.0515433 0
0.453749 0.0439713 0
0.478728 0.0365465 0
0.503586 0.0290043 0
0.528444 0.021717 0
0.553395 0.0148128 0
0.578348 0.00808485 0
0.603235 0.00146682 0
0.628067 -0.00482161 0
0.652938 -0.0107869 0
0.677872 -0.0165182 0
0.702775 -0.021991 0
0.727616 -0.0271993 0
0.752459 -0.0321462 0
0.777328 -0.0368682 0
0.802208 -0.0414141 0
0.8271 -0.04583 0
0.85199 -0.0501537 0
0.876839 -0.0544048 0
0.901643 -0.0585787 0
0.926453 -0.0626637 0
0.951327 -0.0666422 0
0.976281 -0.0704715 0
1.0013 -0.0740816 0
1.02635 -0.0774096 0
1.05143 -0.080428 0
1.07652 -0.0831345 0
1.10159 -0.0855285 0
1.12663 -0.0876083 0
1.15161 -0.0893843 0
1.17655 -0.0908839 0
1.20146 -0.0921387 0
1.22636 -0.0931725 0
1.25124 -0.0939989 0
1.27612 -0.09463 0
1.30099 -0.0950854 0
1.32585 -0.0953942 0
1.35072 -0.0955909 0
1.37558 -0.0957092 0
1.40045 -0.0957769 0
1.42534 -0.0958143 0
1.45025 -0.0958345 0
1.47517 -0.0958456 0
1.50012 -0.0958517 0
1.52507 -0.0958552 0
1.55005 -0.0958572 0
1.57503 -0.0958584 0
1.60002 -0.0958591 0
1.62501 -0.0958595 0
1.65 -0.0958597 0
1.675 -0.0958599 0
1.7 -0.0958599 0
1.725 -0.09586 0
1.75 -0.09586 0
1.775 -0.09586 0
1.8 -0.09586 0
1.825 -0.09586 0
1.85 -0.09586 0
1.875 -0.09586 0
1.9 -0.09586 0
1.925 -0.09586 0
1.95 -0.09586 0
1.975 -0.09586 0
2 -0.09586 0
2.025 -0.09586 0
2.05 -0.09586 0
2.075 -0.09586 0
2.1 -0.09586 0
2.125 -0.09586 0
2.15 -0.09586 0
2.175 -0.09586 0
2.2 -0.09586 0
2.225 -0.09586 0
2.25 -0.09586 0
2.275 -0.09586 0
2.3 -0.09586 0
2.325 -0.09586 0
2.35 -0.09586 0
2.375 -0.09586 0
2.4 -0.09586 0
2.425 -0.09586 0
2.45 -0.09586 0
2.475 -0.09586 0
2.5 -0.09586 0
0.0249571 0.1238 0
0.0499344 0.122864 0
0.0749482 0.122066 0
0.100002 0.121176 0
0.125061 0.120427 0
0.150108 0.119312 0
0.175205 0.118188 0
0.200405 0.116785 0
0.225562 0.114974 0
0.250865 0.11292 0
0.276256 0.11004 0
0.301765 0.106483 0
0.327294 0.101936 0
0.352858 0.0964594 0
0.378348 0.0900584 0
0.403582 0.0832176 0
0.428621 0.0758425 0
0.453659 0.0685935 0
0.478711 0.0610845 0
0.503555 0.053663 0
0.528396 0.0464991 0
0.553349 0.0395822 0
0.578356 0.0329273 0
0.603256 0.026396 0
0.628028 0.0201319 0
0.652877 0.0141972 0
0.677854 0.00849026 0
0.702798 0.0030299 0
0.727632 -0.00215699 0
0.752433 -0.00710497 0
0.777273 -0.0118609 0
0.802163 -0.0164453 0
0.827082 -0.0208732 0
0.851995 -0.0251743 0
0.876857 -0.0293966 0
0.901661 -0.03357 0
0.926461 -0.0376876 0
0.95132 -0.0417082 0
0.976263 -0.0455648 0
1.00128 -0.0491818 0
1.02634 -0.0525034 0
1.05142 -0.0555074 0
1.07652 -0.0581914 0
1.1016 -0.0605561 0
1.12664 -0.0626075 0
1.15163 -0.0643654 0
1.17656 -0.0658598 0
1.20147 -0.067118 0
1.22636 -0.0681558 0
1.25124 -0.0689812 0
1.27612 -0.0696057 0
1.30099 -0.0700517 0
1.32586 -0.0703525 0
1.35072 -0.0705452 0
1.37558 -0.0706643 0
1.40045 -0.0707368 0
1.42534 -0.0707812 0
1.45025 -0.0708091 0
1.47517 -0.0708272 0
1.50011 -0.0708391 0
1.52507 -0.070847 0
1.55005 -0.0708521 0
1.57503 -0.0708554 0
1.60002 -0.0708574 0
1.62501 -0.0708585 0
1.65 -0.0708592 0
1.675 -0.0708596 0
1.7 -0.0708598 0
1.725 -0.0708599 0
1.75 -0.07086 0
1.775 -0.07086 0
1.8 -0.07086 0
1.825 -0.07086 0
1.85 -0.07086 0
1.875 -0.07086 0
1.9 -0.07086 0
1.925 -0.07086 0
1.95 -0.07086 0
1.975 -0.07086 0
2 -0.07086 0
2.025 -0.07086 0
2.05 -0.07086 0
2.075 -0.07086 0
2.1 -0.07086 0
2.125 -0.07086 0
2.15 -0.07086 0
2.175 -0.07086 0
2.2 -0.07086 0
2.225 -0.07086 0
2.25 -0.07086 0
2.275 -0.07086 0
2.3 -0.07086 0
2.325 -0.07086 0
2.35 -0.07086 0
2.375 -0.07086 0
2.4 -0.07086 0
2.425 -0.07086 0
2.45 -0.07086 0
2.475 -0.07086 0
2.5 -0.07086 0
0.0249786 0.148612 0
0.0500052 0.147564 0
0.0750694 0.146563 0
0.100162 0.14559 0
0.125225 0.144536 0
0.150159 0.143412 0
0.17535 0.14226 0
0.200641 0.140755 0
0.225771 0.138818 0
0.250992 0.136578 0
0.276346 0.133608 0
0.301866 0.129888 0
0.327332 0.125336 0
0.352677 0.119985 0
0.378162 0.113942 0
0.403431 0.107272 0
0.428399 0.100269 0
0.4535 0.0930876 0
0.478611 0.0857447 0
0.503505 0.0785945 0
0.528351 0.0714061 0
0.553306 0.0643749 0
0.578365 0.0577019 0
0.603273 0.0512831 0
0.627998 0.0450781 0
0.652824 0.0390994 0
0.677837 0.0334075 0
0.702832 0.0280414 0
0.727665 0.0229249 0
0.752411 0.017963 0
0.777211 0.0131293 0
0.802111 0.00847103 0
0.827067 0.00403278 0
0.852008 -0.000226169 0
0.876883 -0.00440307 0
0.901685 -0.00856617 0
0.926468 -0.0127115 0
0.951306 -0.0167754 0
0.976237 -0.0206651 0
1.00125 -0.0242944 0
1.02631 -0.0276131 0
1.05141 -0.030606 0
1.07652 -0.0332708 0
1.10162 -0.0356079 0
1.12666 -0.0376288 0
1.15164 -0.0393634 0
1.17658 -0.0408475 0
1.20147 -0.0421058 0
1.22636 -0.0431464 0
1.25124 -0.0439708 0
1.27612 -0.0445887 0
1.30099 -0.0450248 0
1.32586 -0.0453163 0
1.35072 -0.0455036 0
1.37558 -0.0456221 0
1.40046 -0.0456981 0
1.42534 -0.0457487 0
1.45024 -0.0457838 0
1.47517 -0.0458086 0
1.50011 -0.0458263 0
1.52507 -0.0458386 0
1.55004 -0.0458468 0
1.57503 -0.0458522 0
1.60001 -0.0458555 0
1.62501 -0.0458575 0
1.65 -0.0458587 0
1.675 -0.0458593 0
1.7 -0.0458597 0
1.725 -0.0458598 0
1.75 -0.0458599 0
1.775 -0.04586 0
1.8 -0.04586 0
1.825 -0.04586 0
1.85 -0.04586 0
1.875 -0.04586 0
1.9 -0.04586 0
1.925 -0.04586 0
1.95 -0.04586 0
1.975 -0.04586 0
2 -0.04586 0
2.025 -0.04586 0
2.05 -0.04586 0
2.075 -0.04586 0
2.1 -0.04586 0
2.125 -0.04586 0
2.15 -0.04586 0
2.175 -0.04586 0
2.2 -0.04586 0
2.225 -0.04586 0
2.25 -0.04586 0
2.275 -0.04586 0
2.3 -0.04586 0
2.325 -0.04586 0
2.35 -0.04586 0
2.375 -0.04586 0
2.4 -0.04586 0
2.425 -0.04586 0
2.45 -0.04586 0
2.475 -0.04586 0
2.5 -0.04586 0
0.0249565 0.173589 0
0.0499913 0.172561 0
0.0749945 0.17167 0
0.100145 0.170766 0
0.125202 0.169785 0
0.150346 0.16883 0
0.17559 0.167353 0
0.20043 0.165956 0
0.225955 0.163957 0
0.251267 0.161305 0
0.276331 0.158244 0
0.302056 0.154249 0
0.3274 0.149728 0
0.352504 0.144477 0
0.378132 0.138351 0
0.403441 0.131763 0
0.428219 0.124948 0
0.453317 0.117713 0
0.478596 0.110464 0
0.503431 0.10331 0
0.528139 0.0961847 0
0.553292 0.0891052 0
0.578507 0.0823473 0
0.60332 0.0760461 0
0.62795 0.0698996 0
0.652765 0.0638772 0
0.677825 0.0582196 0
0.702883 0.0529585 0
0.72771 0.0479211 0
0.752385 0.0429565 0
0.777145 0.0380442 0
0.802064 0.0333133 0
0.827057 0.0288776 0
0.852028 0.0246751 0
0.876915 0.0205512 0
0.901707 0.0164064 0
0.926465 0.0122412 0
0.951282 0.00813544 0
0.976205 0.00420962 0
1.00122 0.000565729 0
1.02629 -0.00275113 0
1.0514 -0.00573512 0
1.07652 -0.00838329 0
1.10163 -0.0106918 0
1.12668 -0.0126767 0
1.15167 -0.0143795 0
1.17659 -0.0158452 0
1.20148 -0.017098 0
1.22636 -0.0181386 0
1.25124 -0.0189611 0
1.27612 -0.0195722 0
1.301 -0.0199982 0
1.32586 -0.02028 0
1.35072 -0.020461 0
1.37558 -0.020578 0
1.40045 -0.020657 0
1.42534 -0.0207136 0
1.45024 -0.020756 0
1.47516 -0.020788 0
1.50011 -0.0208118 0
1.52507 -0.0208289 0
1.55004 -0.0208407 0
1.57502 -0.0208485 0
1.60001 -0.0208534 0
1.62501 -0.0208563 0
1.65 -0.020858 0
1.675 -0.020859 0
1.7 -0.0208595 0
1.725 -0.0208597 0
1.75 -0.0208599 0
1.775 -0.0208599 0
1.8 -0.02086 0
1.825 -0.02086 0
1.85 -0.02086 0
1.875 -0.02086 0
1.9 -0.02086 0
1.925 -0.02086 0
1.95 -0.02086 0
1.975 -0.02086 0
2 -0.02086 0
2.025 -0.02086 0
2.05 -0.02086 0
2.075 -0.02086 0
2.1 -0.02086 0
2.125 -0.02086 0
2.15 -0.02086 0
2.175 -0.02086 0
2.2 -0.02086 0
2.225 -0.02086 0
2.25 -0.02086 0
2.275 -0.02086 0
2.3 -0.02086 0
2.325 -0.02086 0
2.35 -0.02086 0
2.375 -0.02086 0
2.4 -0.02086 0
2.425 -0.02086 0
2.45 -0.02086 0
2.475 -0.02086 0
2.5 -0.02086 0
</DataArray>
</Points>
<PointData>
<DataArray NumberOfComponents='1' type='Int32' Name='Particle Type' format='ascii'>
0
0
0
0
0
0
0
0
0
0
0
0
0
0
0
0
0
0
0
0
0
0
1
1
1
1
1
1
1
1
1
1
1
1
1
1
1
1
1
1
1
1
1
1
1
1
1
1
1
1
1
1
1
1
1
1
1
1
1
1
1
1
1
1
1
1
1
1
1
1
1
1
1
1
1
1
1
1
1
1
1
1
1
1
1
1
1
1
1
1
1
1
1
1
1
1
1
1
1
1
1
1
1
1
1
1
1
1
1
1
1
1
1
1
1
1
1
1
1
1
1
1
1
1
1
1
1
1
1
1
1
1
1
1
1
1
1
1
1
1
1
1
1
1
1
1
1
1
1
1
1
1
1
1
1
1
1
1
1
1
1
1
1
1
1
1
1
1
1
1
1
1
1
1
1
1
1
1
1
1
1
1
1
1
1
1
1
1
1
1
1
1
1
1
1
1
1
1
1
1
1
1
1
1
1
1
1
1
1
1
1
1
1
1
1
1
1
1
1
1
1
1
1
1
1
1
1
1
1
1
1
1
1
1
1
1
1
1
1
1
1
1
1
1
1
1
1
1
1
1
1
1
1
1
1
1
1
1
1
1
1
1
1
1
1
1
1
1
1
1
1
1
1
1
1
1
1
1
1
1
1
1
1
1
1
1
1
1
1
1
1
1
1
1
1
1
1
1
1
1
1
1
1
1
1
1
1
1
1
1
1
1
1
1
1
1
1
1
1
1
1
1
1
1
1
1
1
1
1
1
1
1
1
1
1
1
1
1
1
1
1
1
1
1
1
1
1
1
1
1
1
1
1
1
1
1
1
1
1
1
1
1
1
1
1
1
1
1
1
1
1
1
1
1
1
1
1
1
1
1
1
1
1
1
1
1
1
1
1
1
1
1
1
1
1
1
1
1
1
1
1
1
1
1
1
1
1
1
1
1
1
1
1
1
1
1
1
1
1
1
1
1
1
1
1
1
1
1
1
1
1
1
1
1
1
1
1
1
1
1
1
1
1
1
1
1
1
1
1
1
1
1
1
1
1
1
1
1
1
1
1
1
1
1
1
1
1
1
1
1
1
1
1
1
1
1
1
1
1
1
1
1
1
1
1
1
1
1
1
1
1
1
1
1
1
1
1
1
1
1
1
1
1
1
1
1
1
1
1
1
1
1
1
1
1
1
1
1
1
1
1
1
1
1
1
1
1
1
1
1
1
1
1
1
1
1
1
1
1
1
1
1
1
1
1
1
1
1
1
1
1
1
1
1
1
1
1
1
1
1
1
1
1
1
1
1
1
1
1
1
1
1
1
1
1
1
1
1
1
1
1
1
1
1
1
1
1
1
1
1
1
1
1
1
1
1
1
1
1
1
1
1
1
1
1
1
1
1
1
1
1
1
1
1
1
1
1
1
1
1
1
1
1
1
1
1
1
1
1
1
1
1
1
1
1
1
1
1
1
1
1
1
1
1
1
1
1
1
1
1
1
1
1
1
1
1
1
1
1
1
1
1
1
1
1
1
1
1
1
1
1
1
1
1
1
1
1
1
1
1
1
1
1
1
1
1
1
1
1
1
1
1
1
1
1
1
1
1
1
1
1
1
1
1
1
1
1
1
1
1
1
1
1
1
1
1
1
1
1
1
1
1
1
1
1
1
1
1
1
1
1
1
1
1
1
1
1
1
1
1
1
1
1
1
1
1
1
1
1
1
1
1
1
1
1
1
1
1
1
1
1
1
1
1
1
1
1
1
1
1
1
1
1
1
1
1
1
1
1
1
1
1
1
1
1
1
1
1
1
1
1
1
1
1
1
1
1
1
1
1
1
1
1
1
1
1
1
1
</DataArray>
<DataArray NumberOfComponents='3' type='Float64' Name='Velocity' format='ascii'>
0 0 0
0 0 0
0 0 0
0 0 0
0 0 0
0 0 0
0 0 0
0 0 0
0 0 0
0 0 0
0 0 0
0 0 0
0 0 0
0 0 0
0 0 0
0 0 0
0 0 0
0 0 0
0 0 0
0 0 0
0 0 0
0 0 0
0.008892 -0.0202003 0
0.00385541 -0.0205083 0
-0.000199729 -0.0274381 0
0.00489134 -0.0360746 0
0.00319799 -0.0407856 0
0.00415036 -0.0433763 0
-0.000863188 -0.0570459 0
-0.000124345 -0.0685153 0
0.00309451 -0.0731663 0
-0.00255166 -0.0800492 0
0.00170406 -0.0870157 0
0.00468982 -0.0955199 0
0.000963475 -0.103147 0
0.00152349 -0.110833 0
0.000928137 -0.123117 0
-0.000610061 -0.131133 0
0.00236195 -0.132279 0
0.0043729 -0.136044 0
0.00316726 -0.142717 0
0.00406721 -0.14675 0
0.00702522 -0.150395 0
0.00754545 -0.155556 0
0.00523926 -0.159222 0
0.00265132 -0.160737 0
0.000549708 -0.163896 0
-0.00159375 -0.170781 0
-0.00343462 -0.179375 0
-0.00410637 -0.187558 0
-0.00347414 -0.195875 0
-0.00212997 -0.205754 0
-0.000643186 -0.217029 0
0.000767993 -0.228039 0
0.00205578 -0.237347 0
0.00314844 -0.244765 0
0.00396143 -0.251001 0
0.00448483 -0.256792 0
0.00479046 -0.26239 0
0.00495906 -0.267594 0
0.00501775 -0.272053 0
0.00493861 -0.275519 0
0.00468106 -0.277948 0
0.00423508 -0.279463 0
0.00363744 -0.280278 0
0.00295952 -0.280618 0
0.00228155 -0.280675 0
0.00166923 -0.280591 0
0.00116167 -0.280458 0
0.000770976 -0.280326 0
0.000489242 -0.280217 0
0.000297584 -0.280136 0
0.000173903 -0.280082 0
9.78448e-05 -0.280047 0
5.31063e-05 -0.280026 0
2.78547e-05 -0.280014 0
1.41415e-05 -0.280007 0
6.95947e-06 -0.280003 0
3.32448e-06 -0.280002 0
1.5434e-06 -0.280001 0
6.97162e-07 -0.28 0
3.06725e-07 -0.28 0
1.31567e-07 -0.28 0
5.50712e-08 -0.28 0
2.25138e-08 -0.28 0
8.99622e-09 -0.28 0
3.51626e-09 -0.28 0
1.3453e-09 -0.28 0
5.04096e-10 -0.28 0
1.85137e-10 -0.28 0
6.65864e-11 -0.28 0
2.36338e-11 -0.28 0
8.2552e-12 -0.28 0
2.82692e-12 -0.28 0
9.35723e-13 -0.28 0
2.58338e-13 -0.28 0
3.62441e-14 -0.28 0
2.85847e-15 -0.28 0
-5.21711e-16 -0.28 0
-7.15113e-17 -0.28 0
8.66565e-16 -0.28 0
3.01064e-15 -0.28 0
-5.9187e-16 -0.28 0
-1.92538e-15 -0.28 0
6.55997e-16 -0.28 0
-8.18774e-16 -0.28 0
-9.03085e-16 -0.28 0
-2.72833e-16 -0.28 0
-0.000267505 0.00314482 0
0.00124857 0.00408809 0
0.00273129 0.00761128 0
0.0040279 0.00788213 0
0.00470244 0.0139607 0
0.000330458 0.0191087 0
0.00265729 0.0154161 0
-0.000317152 0.0223272 0
-0.00550928 0.00892724 0
0.000769246 0.00774424 0
-0.000701245 0.0111463 0
-0.002954 0.00311892 0
0.000858227 0.00686434 0
-0.00011014 -0.00199681 0
0.00416932 -0.0145653 0
0.00479176 -0.0166312 0
0.0012019 -0.0196345 0
0.000344913 -0.0290425 0
0.000551323 -0.0398455 0
0.000914691 -0.0444151 0
-0.00196933 -0.0583031 0
-0.000859528 -0.0715768 0
0.00323478 -0.0745336 0
0.00279732 -0.0785072 0
0.00305369 -0.0856259 0
0.00194528 -0.094474 0
-0.000267308 -0.1041 0
0.000870129 -0.113135 0
0.00186467 -0.122984 0
0.00160468 -0.13045 0
0.00274907 -0.134051 0
0.00372678 -0.137933 0
0.00346675 -0.143231 0
0.00432896 -0.146791 0
0.0063237 -0.150079 0
0.00676016 -0.154394 0
0.00493783 -0.157934 0
0.00243736 -0.160263 0
0.000270428 -0.16401 0
-0.00162203 -0.170863 0
-0.00311869 -0.179513 0
-0.00371985 -0.188215 0
-0.00325223 -0.197049 0
-0.00206039 -0.206945 0
-0.000607467 -0.217807 0
0.000814675 -0.22837 0
0.00207265 -0.237454 0
0.00310043 -0.244857 0
0.00386668 -0.251151 0
0.00438786 -0.256969 0
0.0047208 -0.26253 0
0.00491761 -0.267649 0
0.00498964 -0.272003 0
0.00491124 -0.275366 0
0.00465252 -0.277712 0
0.00421163 -0.279177 0
0.00362652 -0.279976 0
0.0029645 -0.280331 0
0.00230053 -0.280427 0
0.00169688 -0.280392 0
0.00119194 -0.280309 0
0.000799119 -0.280221 0
0.00051254 -0.280147 0
0.000315204 -0.280092 0
0.000186267 -0.280055 0
0.000105982 -0.280031 0
5.8168e-05 -0.280017 0
3.08479e-05 -0.280009 0
1.58319e-05 -0.280005 0
7.87468e-06 -0.280002 0
3.80098e-06 -0.280001 0
1.78258e-06 -0.280001 0
8.13182e-07 -0.28 0
3.61213e-07 -0.28 0
1.56387e-07 -0.28 0
6.60531e-08 -0.28 0
2.72402e-08 -0.28 0
1.09774e-08 -0.28 0
4.32593e-09 -0.28 0
1.66811e-09 -0.28 0
6.29998e-10 -0.28 0
2.33214e-10 -0.28 0
8.45909e-11 -0.28 0
3.00601e-11 -0.28 0
1.05466e-11 -0.28 0
3.6318e-12 -0.28 0
1.24151e-12 -0.28 0
3.95716e-13 -0.28 0
6.46006e-14 -0.28 0
5.88329e-15 -0.28 0
4.17589e-16 -0.28 0
1.12229e-16 -0.28 0
4.24319e-16 -0.28 0
1.81944e-16 -0.28 0
-8.14093e-16 -0.28 0
7.89758e-16 -0.28 0
7.23318e-16 -0.28 0
-5.72723e-16 -0.28 0
2.23861e-16 -0.28 0
3.48287e-16 -0.28 0
-0.000435943 -0.00226062 0
-0.000164901 -0.00755004 0
-0.00119738 -0.00835276 0
-0.00246468 -0.0131026 0
-0.000321007 -0.0186353 0
-0.00203717 -0.0123484 0
0.000409206 -0.0202478 0
0.0023567 -0.00896116 0
0.000963669 -0.0184388 0
0.0047998 -0.0171078 0
0.00250064 -0.0108265 0
3.21888e-06 -0.0212865 0
0.00461729 -0.0128063 0
0.0047916 -0.0191945 0
0.00421922 -0.0298862 0
0.0046385 -0.0251772 0
0.00278263 -0.0275849 0
0.00252525 -0.0377771 0
0.00306274 -0.0415335 0
0.00281425 -0.0477416 0
0.000140794 -0.0604121 0
-0.000667984 -0.0691787 0
0.00118335 -0.0722926 0
0.00218747 -0.0757658 0
0.00244621 -0.0838901 0
0.00123034 -0.0945278 0
0.000162491 -0.105592 0
0.00150133 -0.114462 0
0.00277744 -0.122448 0
0.00278476 -0.130181 0
0.00313869 -0.135427 0
0.00353755 -0.139719 0
0.00346606 -0.143669 0
0.00423485 -0.146234 0
0.00584783 -0.149084 0
0.00628292 -0.152987 0
0.00464453 -0.156622 0
0.00211437 -0.159669 0
-7.90367e-05 -0.16402 0
-0.00173556 -0.171039 0
-0.0029339 -0.179848 0
-0.00345816 -0.188978 0
-0.00310658 -0.198197 0
-0.00201653 -0.208055 0
-0.000557971 -0.218485 0
0.000908301 -0.22856 0
0.00216034 -0.237376 0
0.00312385 -0.244766 0
0.00381896 -0.251181 0
0.00430638 -0.257113 0
0.00464712 -0.262707 0
0.00487088 -0.267772 0
0.00496696 -0.272016 0
0.00490148 -0.275256 0
0.0046477 -0.277501 0
0.00421003 -0.278904 0
0.00362994 -0.279685 0
0.00297456 -0.280058 0
0.00231675 -0.280194 0
0.00171689 -0.280209 0
0.0012127 -0.280175 0
0.000818057 -0.280128 0
0.000528149 -0.280086 0
0.000327026 -0.280054 0
0.000194599 -0.280032 0
0.000111495 -0.280019 0
6.16158e-05 -0.28001 0
3.28978e-05 -0.280005 0
1.69957e-05 -0.280003 0
8.50779e-06 -0.280001 0
4.13206e-06 -0.280001 0
1.94946e-06 -0.28 0
8.94431e-07 -0.28 0
3.99503e-07 -0.28 0
1.73883e-07 -0.28 0
7.38166e-08 -0.28 0
3.05905e-08 -0.28 0
1.23849e-08 -0.28 0
4.90242e-09 -0.28 0
1.89862e-09 -0.28 0
7.19875e-10 -0.28 0
2.67367e-10 -0.28 0
9.73151e-11 -0.28 0
3.47817e-11 -0.28 0
1.22003e-11 -0.28 0
4.24017e-12 -0.28 0
1.45572e-12 -0.28 0
4.84214e-13 -0.28 0
8.79195e-14 -0.28 0
9.09028e-15 -0.28 0
1.38964e-15 -0.28 0
1.8293e-16 -0.28 0
-6.10167e-16 -0.28 0
-1.83405e-15 -0.28 0
-1.94686e-16 -0.28 0
1.70467e-15 -0.28 0
-5.73145e-16 -0.28 0
1.01277e-16 -0.28 0
8.05795e-16 -0.28 0
-2.08175e-16 -0.28 0
0.00173684 -0.00521227 0
0.000219646 -0.0100258 0
-0.0017044 -0.0138094 0
-0.0029448 -0.013189 0
-0.000898687 -0.0207007 0
0.0014102 -0.0204491 0
0.0013155 -0.033129 0
0.00107447 -0.0208692 0
0.00130684 -0.0214351 0
0.00398633 -0.0183451 0
0.0040963 -0.0172471 0
0.000943325 -0.0286045 0
0.0027846 -0.0209328 0
0.00107128 -0.0189167 0
0.00332855 -0.0273774 0
0.00581243 -0.0274829 0
0.00350838 -0.0308478 0
0.00188066 -0.0418836 0
0.00253938 -0.0501928 0
0.00396071 -0.0544122 0
0.00148866 -0.0583259 0
-0.000475874 -0.0651113 0
-8.35546e-05 -0.0689905 0
0.000880734 -0.0754286 0
0.00166718 -0.086112 0
0.00132666 -0.0959896 0
0.00133878 -0.105348 0
0.0027438 -0.114262 0
0.00344477 -0.122213 0
0.00305633 -0.130261 0
0.00315128 -0.136382 0
0.00339964 -0.140721 0
0.00329268 -0.143778 0
0.00395254 -0.14569 0
0.00547531 -0.148152 0
0.00601861 -0.151611 0
0.0045054 -0.155199 0
0.00192806 -0.158837 0
-0.000322914 -0.163892 0
-0.00186327 -0.171309 0
-0.00288626 -0.180378 0
-0.00337191 -0.189853 0
-0.00310172 -0.199359 0
-0.00205731 -0.209166 0
-0.000541734 -0.219188 0
0.00101525 -0.228758 0
0.00229986 -0.237249 0
0.00321532 -0.244591 0
0.0038278 -0.251146 0
0.00425444 -0.257251 0
0.00457854 -0.262936 0
0.00481843 -0.267976 0
0.00494111 -0.272108 0
0.00489729 -0.275204 0
0.00465581 -0.277322 0
0.0042233 -0.278645 0
0.00364486 -0.279398 0
0.00298991 -0.279785 0
0.002332 -0.279961 0
0.00173144 -0.280027 0
0.0012258 -0.280041 0
0.000829106 -0.280036 0
0.000536854 -0.280026 0
0.000333452 -0.280017 0
0.000199061 -0.280011 0
0.000114422 -0.280006 0
6.34385e-05 -0.280003 0
3.39791e-05 -0.280002 0
1.7609e-05 -0.280001 0
8.84143e-06 -0.28 0
4.30663e-06 -0.28 0
2.03751e-06 -0.28 0
9.37341e-07 -0.28 0
4.19744e-07 -0.28 0
1.83141e-07 -0.28 0
7.79288e-08 -0.28 0
3.23664e-08 -0.28 0
1.31319e-08 -0.28 0
5.20863e-09 -0.28 0
2.02099e-09 -0.28 0
7.67815e-10 -0.28 0
2.85763e-10 -0.28 0
1.04204e-10 -0.28 0
3.72608e-11 -0.28 0
1.30807e-11 -0.28 0
4.52314e-12 -0.28 0
1.57876e-12 -0.28 0
5.20932e-13 -0.28 0
1.02686e-13 -0.28 0
1.08292e-14 -0.28 0
8.26524e-16 -0.28 0
3.34517e-16 -0.28 0
-4.42258e-17 -0.28 0
-5.19364e-16 -0.28 0
5.70024e-16 -0.28 0
-7.06959e-16 -0.28 0
-1.12856e-15 -0.28 0
7.34983e-16 -0.28 0
-5.70771e-18 -0.28 0
-4.23016e-16 -0.28 0
0.0012261 -0.00286806 0
-0.000628945 -0.00678844 0
-0.00133125 -0.00887968 0
-0.000358894 -0.007751 0
0.000948443 -0.0169889 0
0.00286812 -0.0106887 0
0.00239812 -0.0179967 0
0.00159227 -0.0133925 0
0.00168587 -0.0192918 0
-0.000539826 -0.0172322 0
0.00422437 -0.0134979 0
0.00355408 -0.02424 0
0.00165029 -0.0147696 0
0.0017496 -0.0192971 0
0.00351409 -0.0211245 0
0.00671076 -0.0284556 0
0.00380768 -0.0297695 0
0.000676764 -0.0456802 0
0.000810035 -0.0442432 0
0.00290896 -0.0462727 0
0.000234499 -0.0586828 0
-0.00127565 -0.0680277 0
0.000352232 -0.0706757 0
0.00280688 -0.0776521 0
0.00323996 -0.0892238 0
0.0012013 -0.0973205 0
0.000841066 -0.104754 0
0.00300269 -0.11321 0
0.00408003 -0.121948 0
0.00347807 -0.130161 0
0.00309101 -0.136388 0
0.00296933 -0.140581 0
0.00279235 -0.143612 0
0.00351142 -0.145652 0
0.00513845 -0.147807 0
0.00591335 -0.150513 0
0.00462924 -0.153717 0
0.00206592 -0.157776 0
-0.000322033 -0.163602 0
-0.00194979 -0.171588 0
-0.00298529 -0.180989 0
-0.00350245 -0.190759 0
-0.00328322 -0.200505 0
-0.00222065 -0.210293 0
-0.000585912 -0.219966 0
0.00111849 -0.229035 0
0.00248154 -0.237151 0
0.00337263 -0.244392 0
0.00389905 -0.251076 0
0.00424236 -0.257382 0
0.00452419 -0.2632 0
0.0047644 -0.268242 0
0.00491103 -0.272266 0
0.00489458 -0.275206 0
0.00467223 -0.27718 0
0.00424788 -0.278406 0
0.00366922 -0.27912 0
0.00300966 -0.279515 0
0.00234602 -0.279729 0
0.00174042 -0.279844 0
0.0012311 -0.279908 0
0.000832016 -0.279945 0
0.000538351 -0.279967 0
0.000334178 -0.279981 0
0.000199392 -0.279989 0
0.000114565 -0.279994 0
6.34964e-05 -0.279997 0
3.4001e-05 -0.279998 0
1.76165e-05 -0.279999 0
8.84373e-06 -0.28 0
4.30717e-06 -0.28 0
2.03756e-06 -0.28 0
9.37285e-07 -0.28 0
4.19692e-07 -0.28 0
1.8311e-07 -0.28 0
7.79126e-08 -0.28 0
3.23588e-08 -0.28 0
1.31286e-08 -0.28 0
5.20728e-09 -0.28 0
2.02044e-09 -0.28 0
7.67497e-10 -0.28 0
2.85656e-10 -0.28 0
1.04167e-10 -0.28 0
3.72512e-11 -0.28 0
1.30798e-11 -0.28 0
4.52273e-12 -0.28 0
1.57889e-12 -0.28 0
5.20951e-13 -0.28 0
1.0308e-13 -0.28 0
1.05092e-14 -0.28 0
-3.89651e-17 -0.28 0
2.01761e-16 -0.28 0
2.00921e-16 -0.28 0
5.51665e-16 -0.28 0
4.11343e-16 -0.28 0
-9.30671e-16 -0.28 0
5.98822e-16 -0.28 0
-2.28579e-16 -0.28 0
-7.56353e-16 -0.28 0
5.9792e-16 -0.28 0
-0.000378061 -0.00488863 0
-0.00164813 -0.0117878 0
-0.000789763 -0.0135081 0
-6.90691e-05 -0.0191046 0
-0.00357239 -0.0206493 0
-0.000124934 -0.0120028 0
0.00192531 -0.0177534 0
0.00351879 -0.0156191 0
0.00837077 -0.023221 0
0.00250606 -0.0275612 0
0.00061336 -0.0203928 0
0.00532058 -0.0229148 0
0.00275717 -0.0204546 0
0.00279103 -0.0200158 0
0.00312069 -0.0257254 0
0.00561247 -0.0256111 0
0.00474767 -0.0328482 0
-0.000515647 -0.0374173 0
0.00239363 -0.0365079 0
0.00552602 -0.0481907 0
0.00222428 -0.0587657 0
-0.00115338 -0.0688909 0
-0.00042045 -0.0748608 0
0.00445256 -0.079743 0
0.00542226 -0.0903878 0
0.000882779 -0.0986515 0
-0.000875941 -0.105136 0
0.00227319 -0.113383 0
0.00495283 -0.122059 0
0.00473797 -0.129267 0
0.00334254 -0.134785 0
0.00218615 -0.139299 0
0.00181669 -0.143489 0
0.00281909 -0.146384 0
0.00479027 -0.148186 0
0.0059755 -0.149794 0
0.00505196 -0.152282 0
0.00254416 -0.15653 0
-7.6465e-05 -0.163077 0
-0.00198221 -0.171716 0
-0.00320243 -0.181511 0
-0.00382723 -0.191568 0
-0.00364583 -0.20156 0
-0.0025086 -0.211408 0
-0.000690263 -0.220828 0
0.00121635 -0.229436 0
0.0026961 -0.237142 0
0.0035816 -0.24422 0
0.00402039 -0.250992 0
0.00426443 -0.2575 0
0.00448505 -0.263475 0
0.00471334 -0.268546 0
0.0048813 -0.272475 0
0.00489591 -0.275258 0
0.00469708 -0.277077 0
0.00428215 -0.278194 0
0.00370059 -0.278857 0