<?xml version='1.0' encoding='UTF-8'?>
<VTKFile byte_order='LittleEndian' version='0.1' type = 'UnstructuredGrid'>
<UnstructuredGrid>
<FieldData>
<DataArray type='Float64' Name='Time' NumberOfComponents='1' NumberOfTuples='1' format='ascii'>
3.441
</DataArray>
</FieldData>
<Piece NumberOfCells='808' NumberOfPoints='808'>
<Points>
<DataArray NumberOfComponents='3' type='Float64' Name='position' format='ascii'>
0 0 0
0 0.025 0
-0.00102239 0.0497524 0
-2.8161e-05 0.0750074 0
0 0.1 0
0 0.125 0
0 0.15 0
0 0.175 0
0.025 0 0
0.05 0 0
0.075 0 0
0.1 0 0
0.125 0 0
0.153384 -0.00147324 0
0.176485 -0.00153954 0
0.19974 -0.00368965 0
0.223656 -0.000973278 0
0.248223 -0.00702435 0
0.265658 -0.00824845 0
0.29248 -0.0137334 0
0.315211 -0.0264613 0
0.332594 -0.0139299 0
0.363129 -0.0583373 0
0.39363 -0.1047 0
0.428664 -0.131357 0
0.446181 -0.166337 0
0.474644 -0.160848 0
0.505774 -0.213455 0
0.522679 -0.21414 0
0.542439 -0.232387 0
0.582615 -0.272864 0
0.609449 -0.270425 0
0.611655 -0.303497 0
0.630957 -0.305513 0
0.657108 -0.324668 0
0.701236 -0.359845 0
0.705745 -0.373815 0
0.742913 -0.401538 0
0.769241 -0.40314 0
0.792834 -0.450647 0
0.825118 -0.426003 0
0.834247 -0.455957 0
0.878974 -0.501974 0
0.907739 -0.512785 0
0.910584 -0.502995 0
0.953187 -0.520019 0
0.968479 -0.540115 0
0.993968 -0.564884 0
1.02856 -0.575516 0
1.05885 -0.599242 0
1.07655 -0.610244 0
1.09988 -0.621376 0
1.12978 -0.635072 0
1.1462 -0.647092 0
1.16927 -0.661832 0
1.1991 -0.676002 0
1.22459 -0.690569 0
1.24453 -0.703396 0
1.26894 -0.714278 0
1.2989 -0.728081 0
1.32178 -0.742176 0
1.34127 -0.753774 0
1.37068 -0.76729 0
1.40064 -0.782648 0
1.42041 -0.795158 0
1.44096 -0.805249 0
1.46986 -0.817326 0
1.49864 -0.831476 0
1.52208 -0.843932 0
1.54428 -0.854188 0
1.56876 -0.864756 0
1.59545 -0.876564 0
1.62241 -0.888659 0
1.64726 -0.900238 0
1.67012 -0.910758 0
1.69409 -0.9201 0
1.72102 -0.929346 0
1.74862 -0.939713 0
1.77379 -0.950528 0
1.79686 -0.960106 0
1.82067 -0.968409 0
1.84666 -0.977035 0
1.87361 -0.986911 0
1.89992 -0.997119 0
1.92506 -1.00612 0
1.94917 -1.01385 0
1.97308 -1.02162 0
1.99796 -1.03013 0
2.02384 -1.03882 0
2.04951 -1.04697 0
2.0743 -1.05447 0
2.09876 -1.06151 0
2.1236 -1.06819 0
2.14879 -1.07448 0
2.17397 -1.08048 0
2.19892 -1.08625 0
2.22374 -1.09166 0
2.2486 -1.09654 0
2.27355 -1.1006 0
2.2986 -1.10388 0
2.32375 -1.10653 0
2.34898 -1.10867 0
2.3743 -1.11043 0
2.39966 -1.11186 0
2.42504 -1.11302 0
2.45039 -1.11393 0
2.47566 -1.11458 0
2.50082 -1.11496 0
0.0271814 0.0400891 0
0.0529998 0.0299742 0
0.0813289 0.019319 0
0.112604 0.0155304 0
0.132009 0.0206888 0
0.159584 0.0212048 0
0.179439 0.0113768 0
0.195243 0.00589435 0
0.211948 0.0223615 0
0.241483 0.00152996 0
0.273564 -0.00212488 0
0.282481 -0.0135484 0
0.309462 -0.0126101 0
0.352663 -0.0268304 0
0.37688 -0.043504 0
0.403336 -0.0631846 0
0.4024 -0.0907919 0
0.453922 -0.129514 0
0.465521 -0.150551 0
0.485753 -0.168635 0
0.505373 -0.186701 0
0.562997 -0.205793 0
0.563812 -0.218834 0
0.597996 -0.262119 0
0.621391 -0.257505 0
0.644962 -0.288263 0
0.67472 -0.313937 0
0.700267 -0.324789 0
0.718154 -0.35291 0
0.762452 -0.3794 0
0.778229 -0.392078 0
0.792314 -0.394086 0
0.835076 -0.424171 0
0.85826 -0.446386 0
0.878396 -0.444038 0
0.900034 -0.457733 0
0.918933 -0.491812 0
0.953741 -0.505685 0
0.983217 -0.53258 0
0.998773 -0.534722 0
1.02415 -0.551116 0
1.05394 -0.567201 0
1.07922 -0.58808 0
1.10349 -0.601475 0
1.12308 -0.607542 0
1.14579 -0.621733 0
1.17189 -0.639208 0
1.19843 -0.651942 0
1.22249 -0.663297 0
1.2439 -0.677119 0
1.27041 -0.691281 0
1.29933 -0.704699 0
1.32127 -0.717634 0
1.34205 -0.730032 0
1.37011 -0.742905 0
1.3985 -0.756906 0
1.42078 -0.769947 0
1.44322 -0.781426 0
1.47011 -0.793544 0
1.4971 -0.806773 0
1.52123 -0.818879 0
1.54469 -0.829469 0
1.56953 -0.840654 0
1.59564 -0.852882 0
1.62178 -0.864478 0
1.6466 -0.875068 0
1.67029 -0.885465 0
1.69484 -0.895684 0
1.72123 -0.905576 0
1.74795 -0.915606 0
1.77319 -0.925593 0
1.79711 -0.93499 0
1.8213 -0.943963 0
1.84686 -0.953135 0
1.87335 -0.962835 0
1.89954 -0.972361 0
1.92468 -0.980921 0
1.94903 -0.988859 0
1.97338 -0.997148 0
1.99833 -1.00581 0
2.02379 -1.01423 0
2.04918 -1.02209 0
2.07415 -1.02953 0
2.09887 -1.03665 0
2.12369 -1.04338 0
2.14875 -1.04969 0
2.17387 -1.05571 0
2.19888 -1.06143 0
2.22378 -1.06678 0
2.24865 -1.07156 0
2.2736 -1.07558 0
2.29864 -1.07887 0
2.32378 -1.08153 0
2.349 -1.0837 0
2.37429 -1.08549 0
2.39964 -1.08695 0
2.42502 -1.08812 0
2.45037 -1.08902 0
2.47563 -1.08964 0
2.50079 -1.08999 0
0.0438236 0.0372529 0
0.0312534 0.0553737 0
0.0708998 0.0616318 0
0.108038 0.0450414 0
0.129887 0.0548657 0
0.145543 0.0472976 0
0.187884 0.0516921 0
0.199638 0.0392908 0
0.222305 0.0353358 0
0.247833 0.0335831 0
0.273819 0.0292359 0
0.307832 0.0213622 0
0.303541 -0.00135687 0
0.345821 -0.0190289 0
0.383433 -0.0518027 0
0.393841 -0.0495944 0
0.417973 -0.0815545 0
0.445265 -0.116348 0
0.461762 -0.117009 0
0.492883 -0.137689 0
0.527634 -0.161813 0
0.553792 -0.181675 0
0.577278 -0.192652 0
0.598062 -0.227241 0
0.63542 -0.260707 0
0.646176 -0.256407 0
0.677758 -0.287929 0
0.699932 -0.31451 0
0.709521 -0.308295 0
0.758473 -0.332396 0
0.766722 -0.359841 0
0.795176 -0.371267 0
0.83244 -0.391094 0
0.843206 -0.41249 0
0.886495 -0.427828 0
0.904388 -0.444967 0
0.91438 -0.468894 0
0.953884 -0.481781 0
0.983747 -0.496755 0
1.00198 -0.518348 0
1.02415 -0.522817 0
1.04739 -0.533856 0
1.07687 -0.563466 0
1.10366 -0.576853 0
1.12195 -0.581588 0
1.14614 -0.597249 0
1.17351 -0.614443 0
1.19746 -0.626564 0
1.22055 -0.63743 0
1.24424 -0.651378 0
1.27149 -0.66698 0
1.29877 -0.680719 0
1.32077 -0.693726 0
1.34318 -0.705921 0
1.37017 -0.718003 0
1.39678 -0.731659 0
1.42061 -0.745099 0
1.44487 -0.756794 0
1.4706 -0.769042 0
1.49601 -0.782136 0
1.52047 -0.793688 0
1.54492 -0.804502 0
1.57016 -0.816606 0
1.59588 -0.828834 0
1.62128 -0.839731 0
1.64603 -0.849868 0
1.67046 -0.860151 0
1.69542 -0.870892 0
1.72135 -0.881481 0
1.74747 -0.891245 0
1.77281 -0.900628 0
1.79733 -0.910023 0
1.82177 -0.919347 0
1.847 -0.928856 0
1.87314 -0.93841 0
1.89921 -0.947361 0
1.92437 -0.955651 0
1.94894 -0.963957 0
1.9736 -0.972544 0
1.99858 -0.981163 0
2.02378 -0.989389 0
2.04899 -0.997101 0
2.07404 -1.0045 0
2.09891 -1.01165 0
2.12375 -1.01846 0
2.14873 -1.02483 0
2.1738 -1.03087 0
2.19884 -1.03656 0
2.22379 -1.04187 0
2.24871 -1.04657 0
2.27366 -1.05055 0
2.2987 -1.05383 0
2.32381 -1.0565 0
2.34901 -1.0587 0
2.37428 -1.06052 0
2.39962 -1.06202 0
2.425 -1.06322 0
2.45035 -1.06413 0
2.47562 -1.06473 0
2.50079 -1.06506 0
0.0138877 0.0787596 0
0.0493101 0.0861615 0
0.0674892 0.077102 0
0.110418 0.0674646 0
0.129325 0.0665785 0
0.152285 0.0601459 0
0.170621 0.0645543 0
0.191824 0.0805275 0
0.209639 0.0517031 0
0.254755 0.0613508 0
0.27887 0.0488255 0
0.293346 0.0357866 0
0.307293 0.0111827 0
0.356977 0.000179111 0
0.370301 -0.00988069 0
0.401869 -0.034719 0
0.419226 -0.0462187 0
0.44158 -0.0719222 0
0.455677 -0.102523 0
0.518197 -0.119176 0
0.53415 -0.134147 0
0.552441 -0.164227 0
0.57981 -0.182246 0
0.59347 -0.199108 0
0.613747 -0.230708 0
0.659218 -0.238938 0
0.663588 -0.271285 0
0.691986 -0.294221 0
0.72598 -0.283934 0
0.749386 -0.304482 0
0.772416 -0.337005 0
0.796346 -0.347365 0
0.821455 -0.359134 0
0.851741 -0.396934 0
0.888385 -0.407385 0
0.902787 -0.425479 0
0.918818 -0.439832 0
0.948424 -0.449508 0
0.982419 -0.470376 0
1.00482 -0.490583 0
1.02448 -0.502281 0
1.05016 -0.510943 0
1.07296 -0.530659 0
1.09688 -0.549401 0
1.12418 -0.557476 0
1.14834 -0.570011 0
1.17203 -0.589717 0
1.1973 -0.603057 0
1.22053 -0.611346 0
1.24401 -0.626096 0
1.27172 -0.64309 0
1.29806 -0.655945 0
1.31986 -0.668335 0
1.34401 -0.681649 0
1.37139 -0.693906 0
1.39618 -0.706694 0
1.41952 -0.720025 0
1.44524 -0.732315 0
1.47136 -0.744244 0
1.49558 -0.756706 0
1.51974 -0.76879 0
1.54516 -0.780342 0
1.5708 -0.792202 0
1.5959 -0.804232 0
1.62076 -0.814941 0
1.64564 -0.824589 0
1.67066 -0.835095 0
1.69591 -0.846371 0
1.7214 -0.856924 0
1.74708 -0.866541 0
1.77258 -0.875861 0
1.7975 -0.885239 0
1.82207 -0.894813 0
1.84716 -0.904472 0
1.87302 -0.913701 0
1.89887 -0.922216 0
1.92409 -0.930528 0
1.94889 -0.93913 0
1.97373 -0.947911 0
1.99872 -0.956442 0
2.0238 -0.964454 0
2.04891 -0.972061 0
2.07396 -0.979458 0
2.0989 -0.986655 0
2.12378 -0.993542 0
2.14873 -0.999989 0
2.17377 -1.00605 0
2.1988 -1.01169 0
2.22379 -1.01695 0
2.24875 -1.0216 0
2.27372 -1.02554 0
2.29875 -1.02879 0
2.32384 -1.03145 0
2.34901 -1.03367 0
2.37426 -1.03554 0
2.39959 -1.03711 0
2.42498 -1.03835 0
2.45034 -1.03926 0
2.47563 -1.03984 0
2.50081 -1.04015 0
0.010482 0.0987299 0
0.0623025 0.101475 0
0.083681 0.0875229 0
0.0885745 0.111766 0
0.141801 0.074917 0
0.152635 0.091093 0
0.180453 0.0710496 0
0.205214 0.0846394 0
0.206594 0.072132 0
0.260561 0.0879854 0
0.271877 0.0563138 0
0.302261 0.0507423 0
0.334198 0.0378338 0
0.352771 0.0271638 0
0.38022 0.011226 0
0.394024 -0.012702 0
0.422624 -0.032135 0
0.45189 -0.0266459 0
0.464459 -0.0785328 0
0.490671 -0.0844219 0
0.50421 -0.10538 0
0.545216 -0.14383 0
0.586974 -0.15236 0
0.610498 -0.169593 0
0.629257 -0.18697 0
0.649912 -0.203717 0
0.678705 -0.250399 0
0.695228 -0.255414 0
0.74032 -0.267704 0
0.749053 -0.284026 0
0.769375 -0.29768 0
0.811944 -0.315797 0
0.833831 -0.341257 0
0.850296 -0.355891 0
0.87105 -0.371575 0
0.902987 -0.398154 0
0.92689 -0.41662 0
0.949985 -0.422514 0
0.978035 -0.442096 0
1.00212 -0.467918 0
1.02536 -0.477643 0
1.05201 -0.488329 0
1.07356 -0.506683 0
1.09468 -0.520645 0
1.12314 -0.530635 0
1.14892 -0.54592 0
1.17117 -0.563356 0
1.19627 -0.577302 0
1.22125 -0.589324 0
1.24542 -0.602245 0
1.27123 -0.617126 0
1.29603 -0.630529 0
1.31929 -0.643138 0
1.34521 -0.656778 0
1.37236 -0.670261 0
1.39612 -0.682763 0
1.41892 -0.694735 0
1.44473 -0.70679 0
1.47135 -0.71965 0
1.4958 -0.732162 0
1.51971 -0.743711 0
1.54517 -0.755655 0
1.57107 -0.768089 0
1.59586 -0.779463 0
1.62029 -0.789604 0
1.64548 -0.799771 0
1.67097 -0.810624 0
1.69613 -0.821683 0
1.72134 -0.83209 0
1.74689 -0.841632 0
1.77242 -0.851075 0
1.79751 -0.860806 0
1.8223 -0.87046 0
1.84737 -0.879876 0
1.87296 -0.888786 0
1.8986 -0.897098 0
1.92386 -0.905521 0
1.94882 -0.914414 0
1.97376 -0.923277 0
1.99879 -0.931655 0
2.02385 -0.939518 0
2.0489 -0.947038 0
2.07391 -0.95441 0
2.09886 -0.961673 0
2.12378 -0.968665 0
2.14873 -0.975187 0
2.17374 -0.981215 0
2.19876 -0.986846 0
2.22378 -0.992052 0
2.24877 -0.99667 0
2.27377 -1.00056 0
2.29879 -1.00376 0
2.32386 -1.0064 0
2.349 -1.00864 0
2.37423 -1.01057 0
2.39957 -1.01221 0
2.42497 -1.0135 0
2.45035 -1.01441 0
2.47565 -1.01497 0
2.50084 -1.01525 0
0.0195024 0.121134 0
0.0700468 0.108588 0
0.0735622 0.120218 0
0.082871 0.131317 0
0.127305 0.0979833 0
0.15372 0.136629 0
0.168143 0.114103 0
0.182358 0.110206 0
0.218496 0.101991 0
0.253408 0.104592 0
0.280119 0.0703707 0
0.298189 0.0853099 0
0.327688 0.0684983 0
0.349595 0.0399703 0
0.384717 0.0344441 0
0.392981 0.0111599 0
0.424273 -0.0157375 0
0.454664 -0.015856 0
0.467736 -0.05911 0
0.516267 -0.0283875 0
0.547618 -0.0851097 0
0.547829 -0.0963872 0
0.575831 -0.1244 0
0.612424 -0.150285 0
0.622519 -0.167455 0
0.658731 -0.179692 0
0.670411 -0.196212 0
0.706748 -0.222617 0
0.736878 -0.221756 0
0.747225 -0.251015 0
0.781401 -0.279275 0
0.812784 -0.294573 0
0.828798 -0.306188 0
0.841385 -0.322005 0
0.87813 -0.350166 0
0.907341 -0.377445 0
0.92597 -0.390324 0
0.951564 -0.402895 0
0.976448 -0.415034 0
0.997456 -0.435948 0
1.0237 -0.45339 0
1.05194 -0.464949 0
1.0754 -0.481442 0
1.09799 -0.495498 0
1.12169 -0.504357 0
1.14566 -0.520661 0
1.17133 -0.539009 0
1.19676 -0.55226 0
1.22096 -0.564331 0
1.24631 -0.578672 0
1.2713 -0.592909 0
1.29435 -0.60437 0
1.31887 -0.617358 0
1.34639 -0.632946 0
1.37264 -0.646175 0
1.39554 -0.657593 0
1.41882 -0.669767 0
1.44487 -0.682529 0
1.47112 -0.695132 0
1.49568 -0.707161 0
1.51996 -0.718756 0
1.54526 -0.731001 0
1.57083 -0.743527 0
1.59571 -0.7546 0
1.62034 -0.764523 0
1.64553 -0.775156 0
1.67101 -0.786421 0
1.69618 -0.797033 0
1.72129 -0.806892 0
1.74678 -0.816542 0
1.77231 -0.826464 0
1.79747 -0.836549 0
1.82244 -0.846177 0
1.84755 -0.855179 0
1.87293 -0.863688 0
1.89843 -0.872012 0
1.9237 -0.880672 0
1.9487 -0.889711 0
1.9737 -0.898592 0
1.99882 -0.906888 0
2.02392 -0.914603 0
2.04893 -0.922001 0
2.07389 -0.929368 0
2.09884 -0.936729 0
2.12377 -0.943813 0
2.14873 -0.950376 0
2.17371 -0.956377 0
2.19873 -0.961985 0
2.22376 -0.967172 0
2.24878 -0.971775 0
2.27379 -0.975616 0
2.29881 -0.978759 0
2.32387 -0.981364 0
2.34898 -0.98362 0
2.37421 -0.985621 0
2.39955 -0.987335 0
2.42496 -0.988673 0
2.45037 -0.989587 0
2.47569 -0.99011 0
2.50088 -0.990351 0
0.0327104 0.131064 0
0.0370989 0.168418 0
0.0832296 0.160342 0
0.101092 0.156643 0
0.143924 0.138638 0
0.149706 0.153917 0
0.169301 0.126534 0
0.20129 0.148233 0
0.222071 0.134373 0
0.249254 0.115888 0
0.290239 0.116775 0
0.304156 0.0951079 0
0.335458 0.0794063 0
0.342984 0.0870729 0
0.377609 0.0547306 0
0.389162 0.052284 0
0.431853 0.0232501 0
0.454251 0.0215552 0
0.483748 -0.0239254 0
0.499843 -0.0330246 0
0.532752 -0.0718854 0
0.549041 -0.0596847 0
0.575947 -0.102985 0
0.613925 -0.116402 0
0.624574 -0.149459 0
0.658693 -0.147973 0
0.698199 -0.184583 0
0.708699 -0.186945 0
0.733765 -0.206424 0
0.750864 -0.239291 0
0.771819 -0.250245 0
0.800993 -0.269206 0
0.817159 -0.277433 0
0.851549 -0.318007 0
0.889791 -0.332863 0
0.905266 -0.34412 0
0.922851 -0.365897 0
0.951027 -0.377351 0
0.977264 -0.393706 0
0.998132 -0.410393 0
1.02216 -0.422856 0
1.04979 -0.439186 0
1.07624 -0.457961 0
1.09922 -0.470774 0
1.12088 -0.48003 0
1.14553 -0.497315 0
1.1717 -0.515976 0
1.19621 -0.526406 0
1.22052 -0.537771 0
1.24629 -0.555117 0
1.27117 -0.56882 0
1.29451 -0.57921 0
1.31934 -0.592565 0
1.34611 -0.608361 0
1.37172 -0.621714 0
1.39527 -0.632638 0
1.41932 -0.644766 0
1.44516 -0.658687 0
1.47112 -0.671432 0
1.49567 -0.682137 0
1.51983 -0.693415 0
1.54492 -0.706353 0
1.57059 -0.718937 0
1.59585 -0.729775 0
1.62064 -0.739892 0
1.64557 -0.750746 0
1.67083 -0.762122 0
1.69609 -0.772459 0
1.72129 -0.781664 0
1.74669 -0.791399 0
1.77221 -0.802062 0
1.7975 -0.812439 0
1.82252 -0.821862 0
1.84757 -0.830427 0
1.87293 -0.838585 0
1.89841 -0.847023 0
1.92361 -0.855958 0
1.94856 -0.865039 0
1.9736 -0.873897 0
1.99882 -0.882198 0
2.02398 -0.889764 0
2.04897 -0.896973 0
2.07389 -0.904356 0
2.09882 -0.91188 0
2.12376 -0.919043 0
2.14871 -0.925557 0
2.17368 -0.931522 0
2.19869 -0.937124 0
2.22374 -0.942346 0
2.24878 -0.946918 0
2.2738 -0.95071 0
2.29882 -0.953787 0
2.32386 -0.956352 0
2.34896 -0.958627 0
2.37418 -0.960699 0
2.39953 -0.962495 0
2.42496 -0.963878 0
2.45039 -0.964781 0
2.47573 -0.96526 0
2.50094 -0.965458 0
0.0280084 0.175168 0
0.0502371 0.175786 0
0.0756075 0.168447 0
0.0965755 0.177443 0
0.117718 0.167788 0
0.144844 0.170148 0
0.165902 0.162071 0
0.217686 0.165002 0
0.228636 0.144663 0
0.241406 0.14571 0
0.257252 0.140974 0
0.308925 0.127144 0
0.333665 0.111702 0
0.34602 0.101654 0
0.383995 0.079722 0
0.398193 0.0674889 0
0.430189 0.0465555 0
0.443787 0.00768691 0
0.470387 0.00545563 0
0.497189 -0.0116349 0
0.535073 -0.0259084 0
0.560988 -0.0467686 0
0.57799 -0.0679165 0
0.593143 -0.0704324 0
0.635303 -0.104675 0
0.65354 -0.125322 0
0.68288 -0.165639 0
0.710092 -0.161432 0
0.728098 -0.189357 0
0.756116 -0.206008 0
0.779029 -0.199929 0
0.795472 -0.228065 0
0.829132 -0.281332 0
0.855927 -0.272194 0
0.874215 -0.298582 0
0.900864 -0.332433 0
0.926499 -0.332667 0
0.950919 -0.344596 0
0.977575 -0.377807 0
1.00116 -0.387715 0
1.02356 -0.390918 0
1.04866 -0.415102 0
1.07288 -0.434629 0
1.09623 -0.440057 0
1.12199 -0.456791 0
1.14859 -0.480172 0
1.17281 -0.491442 0
1.19456 -0.497453 0
1.2187 -0.512482 0
1.24608 -0.531689 0
1.27198 -0.545106 0
1.29551 -0.554823 0
1.31952 -0.567841 0
1.34507 -0.583898 0
1.3707 -0.597618 0
1.39523 -0.607925 0
1.41978 -0.620066 0
1.44551 -0.635343 0
1.47138 -0.648274 0
1.49576 -0.657336 0
1.51932 -0.667754 0
1.54418 -0.68175 0
1.57054 -0.695237 0
1.59639 -0.705522 0
1.6209 -0.715161 0
1.64537 -0.72657 0
1.67062 -0.738158 0
1.69607 -0.747891 0
1.72124 -0.756708 0
1.74652 -0.766666 0
1.77219 -0.777864 0
1.79768 -0.788599 0
1.82253 -0.797656 0
1.84741 -0.805588 0
1.8729 -0.813723 0
1.89853 -0.822461 0
1.92359 -0.831406 0
1.94838 -0.840455 0
1.97348 -0.849442 0
1.99883 -0.857717 0
2.02403 -0.865054 0
2.049 -0.872118 0
2.07389 -0.879547 0
2.09881 -0.887189 0
2.12374 -0.894372 0
2.14869 -0.900843 0
2.17365 -0.906747 0
2.19866 -0.912363 0
2.22372 -0.91759 0
2.24878 -0.922125 0
2.27381 -0.92586 0
2.29882 -0.928862 0
2.32384 -0.931381 0
2.34893 -0.933676 0
2.37415 -0.935823 0
2.39951 -0.937697 0
2.42497 -0.939115 0
2.45042 -0.939996 0
2.47579 -0.940415 0
2.50101 -0.94056 0
</DataArray>
</Points>
<PointData>
<DataArray NumberOfComponents='1' type='Int32' Name='Particle Type' format='ascii'>
0
0
0
0
0
0
0
0
0
0
0
0
0
0
0
0
0
0
0
0
0
0
1
1
1
1
1
1
1
1
1
1
1
1
1
1
1
1
1
1
1
1
1
1
1
1
1
1
1
1
1
1
1
1
1
1
1
1
1
1
1
1
1
1
1
1
1
1
1
1
1
1
1
1
1
1
1
1
1
1
1
1
1
1
1
1
1
1
1
1
1
1
1
1
1
1
1
1
1
1
1
1
1
1
1
1
1
1
1
1
1
1
1
1
1
1
1
1
1
1
1
1
1
1
1
1
1
1
1
1
1
1
1
1
1
1
1
1
1
1
1
1
1
1
1
1
1
1
1
1
1
1
1
1
1
1
1
1
1
1
1
1
1
1
1
1
1
1
1
1
1
1
1
1
1
1
1
1
1
1
1
1
1
1
1
1
1
1
1
1
1
1
1
1
1
1
1
1
1
1
1
1
1
1
1
1
1
1
1
1
1
1
1
1
1
1
1
1
1
1
1
1
1
1
1
1
1
1
1
1
1
1
1
1
1
1
1
1
1
1
1
1
1
1
1
1
1
1
1
1
1
1
1
1
1
1
1
1
1
1
1
1
1
1
1
1
1
1
1
1
1
1
1
1
1
1
1
1
1
1
1
1
1
1
1
1
1
1
1
1
1
1
1
1
1
1
1
1
1
1
1
1
1
1
1
1
1
1
1
1
1
1
1
1
1
1
1
1
1
1
1
1
1
1
1
1
1
1
1
1
1
1
1
1
1
1
1
1
1
1
1
1
1
1
1
1
1
1
1
1
1
1
1
1
1
1
1
1
1
1
1
1
1
1
1
1
1
1
1
1
1
1
1
1
1
1
1
1
1
1
1
1
1
1
1
1
1
1
1
1
1
1
1
1
1
1
1
1
1
1
1
1
1
1
1
1
1
1
1
1
1
1
1
1
1
1
1
1
1
1
1
1
1
1
1
1
1
1
1
1
1
1
1
1
1
1
1
1
1
1
1
1
1
1
1
1
1
1
1
1
1
1
1
1
1
1
1
1
1
1
1
1
1
1
1
1
1
1
1
1
1
1
1
1
1
1
1
1
1
1
1
1
1
1
1
1
1
1
1
1
1
1
1
1
1
1
1
1
1
1
1
1
1
1
1
1
1
1
1
1
1
1
1
1
1
1
1
1
1
1
1
1
1
1
1
1
1
1
1
1
1
1
1
1
1
1
1
1
1
1
1
1
1
1
1
1
1
1
1
1
1
1
1
1
1
1
1
1
1
1
1
1
1
1
1
1
1
1
1
1
1
1
1
1
1
1
1
1
1
1
1
1
1
1
1
1
1
1
1
1
1
1
1
1
1
1
1
1
1
1
1
1
1
1
1
1
1
1
1
1
1
1
1
1
1
1
1
1
1
1
1
1
1
1
1
1
1
1
1
1
1
1
1
1
1
1
1
1
1
1
1
1
1
1
1
1
1
1
1
1
1
1
1
1
1
1
1
1
1
1
1
1
1
1
1
1
1
1
1
1
1
1
1
1
1
1
1
1
1
1
1
1
1
1
1
1
1
1
1
1
1
1
1
1
1
1
1
1
1
1
1
1
1
1
1
1
1
1
1
1
1
1
1
1
1
1
1
1
1
1
1
1
1
1
1
1
1
1
1
1
1
1
1
1
1
1
1
1
1
1
1
1
1
1
1
1
1
1
1
1
1
1
1
1
1
1
1
1
1
1
1
1
1
1
1
1
1
1
1
1
1
1
1
1
1
1
1
1
1
1
1
1
1
1
1
1
1
1
1
1
1
1
1
1
1
1
1
1
1
1
1
1
1
1
1
1
1
1
</DataArray>
<DataArray NumberOfComponents='3' type='Float64' Name='Velocity' format='ascii'>
0 0 0
0 0 0
-0.759375 -0.0896113 0
-0.0211322 0.0055283 0
0 0 0
0 0 0
0 0 0
0 0 0
0 0 0
0 0 0
0 0 0
0 0 0
0 0 0
0.47282 -0.350429 0
0.329871 -0.31467 0
0.0254999 -0.705983 0
-0.26285 -0.167797 0
-0.125847 -0.580021 0
-0.416328 -0.400853 0
0.15041 -0.719829 0
-0.0647712 -0.324376 0
-0.375313 -0.0818283 0
-0.0773215 0.34019 0
-0.0601513 -0.0381377 0
-0.156189 0.0762852 0
0.00743154 -0.235844 0
0.330967 0.183726 0
0.137716 -0.0736464 0
0.624704 -0.487807 0
-0.66708 0.500538 0
0.0315744 -0.0459157 0
0.826294 -0.091985 0
0.548725 -0.428607 0
0.456397 -0.12704 0
-0.801841 0.327953 0
0.25387 -0.20349 0
0.5539 0.258827 0
-0.23521 -1.01628 0
-0.120141 0.569645 0
-0.178527 -0.32697 0
0.163844 -0.987594 0
-0.035273 0.9722 0
-0.624404 0.40814 0
0.267727 -0.659697 0
0.214944 -0.753313 0
-0.213161 -0.322214 0
0.496099 0.162427 0
-0.368558 -0.17373 0
-0.294485 -0.239521 0
-0.114154 -0.0776697 0
0.616418 -0.611881 0
-0.308771 -0.192595 0
0.0785735 -0.281552 0
0.190657 -0.245803 0
-0.0938715 -0.218016 0
-0.120828 -0.224968 0
0.0786609 -0.243377 0
0.113785 -0.342482 0
-0.0968045 -0.328194 0
-0.0723131 -0.252212 0
0.153368 -0.290911 0
0.0112474 -0.29689 0
-0.207438 -0.216213 0
0.0151144 -0.253972 0
0.197545 -0.348913 0
-0.0102223 -0.346198 0
-0.165617 -0.267578 0
-0.0402764 -0.267719 0
0.0809748 -0.342223 0
0.0538139 -0.369848 0
-0.0282881 -0.337263 0
-0.0736964 -0.309939 0
-0.0395908 -0.312921 0
0.0395094 -0.339044 0
0.0568741 -0.380144 0
-0.0205643 -0.405134 0
-0.0873134 -0.384951 0
-0.0497437 -0.353833 0
0.0371461 -0.366959 0
0.0602439 -0.41258 0
0.00397815 -0.426585 0
-0.0520603 -0.395207 0
-0.0538937 -0.364844 0
-0.0200729 -0.382621 0
0.0203071 -0.430537 0
0.0444993 -0.452912 0
0.0286724 -0.435248 0
-0.0124 -0.416276 0
-0.0295826 -0.422627 0
-0.00975097 -0.443417 0
0.0104217 -0.459655 0
0.00540302 -0.468383 0
-0.0117083 -0.47394 0
-0.0199313 -0.475638 0
-0.0166854 -0.471839 0
-0.0119659 -0.465536 0
-0.0116187 -0.462916 0
-0.0145817 -0.465301 0
-0.0172514 -0.472642 0
-0.0180431 -0.476524 0
-0.0173548 -0.47628 0
-0.0153098 -0.472417 0
-0.012023 -0.465386 0
-0.00827364 -0.455393 0
-0.00508657 -0.442732 0
-0.0029651 -0.428602 0
-0.00167387 -0.415625 0
-0.000513909 -0.406478 0
0.66267 0.61098 0
0.523755 -0.769937 0
0.388787 -0.395211 0
0.463594 -0.139905 0
-0.213587 0.189642 0
-0.282162 -1.14932 0
-0.192863 0.37257 0
0.421562 -0.661929 0
-0.497849 0.462634 0
0.21539 0.426193 0
-0.443536 0.103873 0
0.163804 0.179074 0
-0.171045 0.161038 0
-0.289962 -0.857413 0
0.293691 0.210298 0
0.0527659 -0.351269 0
0.229908 0.636561 0
0.258042 -0.232723 0
-1.31352 0.0700748 0
0.500961 -0.560414 0
-0.692781 -0.276048 0
0.668296 0.102589 0
-0.404478 -0.866932 0
-0.707418 -0.10798 0
0.119385 0.148109 0
-0.390377 0.0325511 0
0.212235 -0.764059 0
0.497756 -0.598215 0
-0.713612 1.04512 0
0.317033 -0.187289 0
0.232972 -0.427443 0
-0.468422 -0.000178815 0
0.112145 -0.193622 0
0.625648 -0.909133 0
0.213641 -0.663563 0
-0.247747 0.324434 0
-0.105151 0.377383 0
-0.571578 -0.103153 0
-0.111109 -0.22009 0
0.623275 -0.440017 0
-0.258759 -0.123738 0
-0.0780947 -0.0928432 0
-0.0193449 -0.0770603 0
0.161699 -0.45829 0
0.164243 -0.401761 0
-0.0116842 -0.147838 0
-0.0634152 -0.214313 0
-0.0310536 -0.339445 0
0.0845265 -0.297433 0
0.0371667 -0.236402 0
-0.138857 -0.253854 0
-0.0261979 -0.278728 0
0.163512 -0.302048 0
0.0152919 -0.293784 0
-0.151259 -0.262731 0
-0.0174355 -0.256288 0
0.105959 -0.308897 0
0.00112192 -0.323483 0
-0.087056 -0.285072 0
-0.0236135 -0.287141 0
0.042876 -0.341604 0
0.0244809 -0.357055 0
-0.0244195 -0.316969 0
-0.0477359 -0.307904 0
-0.0234712 -0.342821 0
0.0246843 -0.363394 0
0.0306287 -0.365034 0
-0.0215714 -0.375031 0
-0.0606475 -0.378354 0
-0.0352027 -0.374629 0
0.0186508 -0.387239 0
0.0377606 -0.403489 0
0.00732029 -0.40425 0
-0.034377 -0.388776 0
-0.0450381 -0.381453 0
-0.0185999 -0.404137 0
0.0166284 -0.435251 0
0.0308905 -0.437849 0
0.0179029 -0.421856 0
-0.00493848 -0.418452 0
-0.015185 -0.432746 0
-0.00845371 -0.448418 0
0.00125058 -0.457243 0
0.00104687 -0.46452 0
-0.00808658 -0.470814 0
-0.0161013 -0.472902 0
-0.0171446 -0.470149 0
-0.0144857 -0.465398 0
-0.0129191 -0.464997 0
-0.0141156 -0.46743 0
-0.0162524 -0.473266 0
-0.0171718 -0.476768 0
-0.0164621 -0.476488 0
-0.0144919 -0.472593 0
-0.0116778 -0.465489 0
-0.00859786 -0.455473 0
-0.00584623 -0.443083 0
-0.00368731 -0.429696 0
-0.00197302 -0.417822 0
-0.000310858 -0.409737 0
0.292701 0.0111093 0
-0.550078 0.531701 0
0.195832 0.219653 0
0.357178 0.32426 0
-0.187695 -0.555173 0
-0.07461 -0.582641 0
0.316391 1.46112 0
-0.104605 -0.155136 0
-0.271097 -0.362997 0
-0.337792 -0.322647 0
0.214365 0.395381 0
0.10376 0.217752 0
0.423075 0.20089 0
0.0460183 -0.317314 0
-0.324071 -0.224746 0
0.278932 -1.17691 0
-0.753978 1.29248 0
-0.142908 -0.573295 0
0.584574 0.231897 0
0.378651 -0.496584 0
-0.580975 0.696939 0
0.116446 -0.703793 0
0.181473 -0.266115 0
-1.06533 0.378784 0
0.0669281 0.387474 0
-0.337655 -0.640424 0
-0.413294 1.00439 0
0.523349 -0.384066 0
-0.615742 -0.560444 0
0.546714 0.200626 0
0.225566 -0.038473 0
-0.37199 0.549636 0
0.143464 -0.36812 0
-0.121627 -0.0996236 0
-0.242064 -0.213526 0
0.669628 0.0976111 0
-0.130632 -0.0914649 0
-0.459933 -0.382533 0
0.116665 -0.183425 0
0.190835 -0.304595 0
0.128775 -0.644327 0
-0.0363738 0.0792553 0
-0.202488 0.101053 0
0.125652 -0.505141 0
0.170536 -0.375377 0
-0.0812773 -0.143814 0
-0.0278063 -0.256159 0
0.0599534 -0.361861 0
0.0491904 -0.306346 0
-0.031679 -0.202004 0
-0.113776 -0.217759 0
0.0102819 -0.261137 0
0.122465 -0.300238 0
0.00659359 -0.328907 0
-0.0843869 -0.292444 0
-0.017762 -0.249076 0
0.0264837 -0.295989 0
-0.00832464 -0.320337 0
-0.0252393 -0.282528 0
-0.00107138 -0.299362 0
0.0148629 -0.352254 0
-0.00130863 -0.330165 0
-0.0256351 -0.297068 0
-0.0264121 -0.325656 0
-0.00604747 -0.365358 0
0.0116971 -0.373723 0
0.00752844 -0.35982 0
-0.0204271 -0.348355 0
-0.0407432 -0.367651 0
-0.0263247 -0.393948 0
0.0047452 -0.398077 0
0.0221859 -0.397022 0
0.011146 -0.393027 0
-0.0207781 -0.385132 0
-0.0375551 -0.395545 0
-0.0173316 -0.421271 0
0.0120923 -0.431818 0
0.0201222 -0.424163 0
0.0111225 -0.417664 0
0.000211199 -0.423095 0
-0.0063245 -0.438109 0
-0.00702426 -0.450204 0
-0.0035166 -0.456129 0
-0.00202396 -0.46109 0
-0.00665985 -0.467141 0
-0.0135144 -0.470604 0
-0.0168218 -0.468114 0
-0.0159583 -0.466119 0
-0.0144056 -0.46695 0
-0.0144762 -0.469963 0
-0.0156099 -0.474635 0
-0.016149 -0.477597 0
-0.0153452 -0.476962 0
-0.0135445 -0.472552 0
-0.0112944 -0.464999 0
-0.00894022 -0.454998 0
-0.00664639 -0.443349 0
-0.0044532 -0.431357 0
-0.00231178 -0.421107 0
-8.2709e-05 -0.414338 0
-0.812211 -0.129794 0
-0.0850117 -0.110879 0
-0.142576 -0.0296663 0
-0.158462 0.804897 0
0.491504 0.0907611 0
-0.744314 0.33774 0
0.636549 -0.241974 0
-0.962068 -0.101973 0
-0.023022 -0.471928 0
0.903184 -0.20357 0
-0.670708 -0.0449052 0
-0.0223632 -0.663007 0
-0.158742 0.4549 0
-0.0278483 -0.0959684 0
-0.437659 -0.100936 0
-0.253901 0.327315 0
0.456272 -0.811022 0
0.843121 0.389973 0
-0.795278 -0.0179142 0
0.00595482 -0.00228566 0
0.282893 -0.384853 0
0.0179371 -0.0210149 0
0.588756 -0.0213765 0
0.418851 -0.141947 0
-0.229598 -0.205096 0
0.549438 0.148466 0
0.198698 -0.0829438 0
-0.341439 0.255675 0
0.356383 -0.556438 0
0.0384901 0.259744 0
0.359207 -0.486714 0
-0.338058 -0.861255 0
0.0808558 0.594622 0
-0.653417 -0.00554097 0
0.0338452 -0.356017 0
0.446856 -0.25952 0
0.129714 -0.490506 0
-0.321306 -0.248483 0
-0.156399 -0.0424651 0
0.203372 -0.225525 0
0.103611 -0.441092 0
0.0466311 -0.312826 0
0.0994856 -0.0055982 0
-0.0742115 -0.268431 0
-0.0597292 -0.427786 0
0.0460034 -0.15411 0
0.0039361 -0.136113 0
0.0206028 -0.412603 0
0.0741085 -0.350299 0
-0.0373441 -0.137206 0
-0.112253 -0.202165 0
0.0379351 -0.307643 0
0.0882115 -0.283057 0
-0.046629 -0.299242 0
-0.0521974 -0.312584 0
0.0402127 -0.272592 0
0.00557036 -0.279642 0
-0.053053 -0.316284 0
-0.00713591 -0.309624 0
0.0333417 -0.298905 0
-0.00242207 -0.315493 0
-0.0318989 -0.324118 0
-0.0183117 -0.311557 0
-0.00162402 -0.329868 0
0.00151971 -0.380574 0
-0.00267606 -0.381774 0
-0.01082 -0.340495 0
-0.0173718 -0.338662 0
-0.0225265 -0.372732 0
-0.0225178 -0.395662 0
-0.00719821 -0.400633 0
0.0137577 -0.394696 0
0.0126279 -0.384908 0
-0.0128842 -0.388806 0
-0.0283423 -0.41122 0
-0.0146263 -0.428842 0
0.00606152 -0.425158 0
0.012073 -0.415087 0
0.00774291 -0.415682 0
0.00237082 -0.428797 0
-0.00209895 -0.44311 0
-0.00504982 -0.450614 0
-0.00491741 -0.454072 0
-0.00412125 -0.457905 0
-0.00685119 -0.463429 0
-0.0121123 -0.467885 0
-0.0159532 -0.467354 0
-0.0163923 -0.468066 0
-0.0156446 -0.468067 0
-0.0153664 -0.472198 0
-0.0154796 -0.476514 0
-0.0152544 -0.47911 0
-0.0141843 -0.477745 0
-0.0125865 -0.472286 0
-0.0109328 -0.463943 0
-0.00924824 -0.454046 0
-0.00732821 -0.443581 0
-0.00508641 -0.433515 0
-0.00261589 -0.425253 0
1.47438e-05 -0.419972 0
-0.226193 0.633616 0
1.25284 -0.131654 0
-0.333735 0.127085 0
0.00376892 -0.486361 0
-0.635507 0.0748294 0
-0.0176913 -0.0404168 0
0.328711 0.550992 0
-0.091405 -0.464344 0
-0.197511 -0.303503 0
-0.0834062 -0.427088 0
0.0615872 0.536551 0
-0.230288 0.175029 0
-0.579797 -0.14752 0
0.754837 -0.357939 0
-0.75572 0.167359 0
0.372065 -0.007824 0
-0.659002 -0.692501 0
-0.0146115 1.19717 0
0.237927 -1.57003 0
-0.281923 0.0966489 0
-0.27744 0.138718 0
-0.248077 0.73179 0
-0.369376 -0.0824363 0
0.4872 0.865408 0
0.315845 -0.87652 0
-0.349242 0.714147 0
0.354473 0.702948 0
-0.353121 -1.0682 0
-0.254515 -0.102142 0
0.431701 -0.545967 0
-0.596037 -0.753038 0
0.110702 -0.000303586 0
0.209107 -0.209462 0
0.510417 -0.473822 0
-0.0577119 -0.104617 0
-0.152799 0.0759295 0
0.0672531 -0.349689 0
-0.0286811 -0.374523 0
-0.0636567 0.188299 0
0.0677368 -0.159956 0
0.00249782 -0.49696 0
0.0372876 -0.25804 0
0.192943 -0.216224 0
-0.0199729 -0.371923 0
-0.136843 -0.311582 0
0.0520318 -0.148153 0
0.048216 -0.193049 0
-0.0254551 -0.268359 0
0.0171229 -0.308288 0
-0.00304195 -0.257739 0
-0.0269236 -0.233445 0
0.0329229 -0.282431 0
0.00988307 -0.277907 0
-0.0809289 -0.260045 0
-0.0254509 -0.282486 0
0.0752723 -0.315211 0
0.0229096 -0.325094 0
-0.0634632 -0.299054 0
-0.0285817 -0.279957 0
0.0302148 -0.31076 0
0.00405471 -0.322307 0
-0.038555 -0.300083 0
-0.0177582 -0.31387 0
0.016664 -0.360327 0
0.00331925 -0.378828 0
-0.0213122 -0.360665 0
-0.016659 -0.341107 0
-0.00833709 -0.346086 0
-0.0160883 -0.375581 0
-0.0216022 -0.396245 0
-0.0105237 -0.390776 0
0.00682716 -0.385847 0
0.00895084 -0.39006 0
-0.00721679 -0.400239 0
-0.018658 -0.421336 0
-0.0115663 -0.430581 0
0.00166503 -0.417077 0
0.00712172 -0.407948 0
0.00538426 -0.417714 0
0.00197454 -0.43408 0
-0.00101033 -0.446122 0
-0.00319417 -0.451684 0
-0.00424248 -0.452516 0
-0.0051751 -0.453305 0
-0.00773271 -0.458887 0
-0.0114937 -0.466316 0
-0.0149733 -0.467885 0
-0.0165543 -0.468253 0
-0.0165637 -0.469637 0
-0.0162346 -0.473857 0
-0.0156308 -0.478721 0
-0.0146305 -0.481148 0
-0.0132135 -0.47872 0
-0.0117959 -0.471768 0
-0.0106473 -0.4624 0
-0.00944676 -0.452731 0
-0.00773671 -0.443793 0
-0.0054323 -0.435939 0
-0.00280184 -0.429764 0
-7.24147e-05 -0.425956 0
-0.323024 -0.205183 0
0.882249 -0.75401 0
-1.06567 -0.0152578 0
0.356506 -0.0908888 0
0.467214 0.707235 0
0.094792 -0.372689 0
-0.19696 0.450541 0
0.431529 0.0769485 0
-0.905765 -0.461477 0
0.460835 -0.136506 0
0.401471 -0.459357 0
0.396327 0.999714 0
0.188619 -0.860667 0
0.0827457 0.250172 0
0.33664 0.0647093 0
-0.517222 -0.482973 0
0.489799 0.539505 0
-0.493415 -0.360877 0
-0.395832 0.1922 0
-0.168549 -0.207848 0
-0.0551992 0.139236 0
0.606238 -0.192247 0
0.00346226 0.177998 0
-0.0838053 -1.04652 0
-0.459893 -0.234974 0
0.316566 -0.904852 0