<?xml version='1.0' encoding='UTF-8'?>
<VTKFile byte_order='LittleEndian' version='0.1' type = 'UnstructuredGrid'>
<UnstructuredGrid>
<FieldData>
<DataArray type='Float64' Name='Time' NumberOfComponents='1' NumberOfTuples='1' format='ascii'>
2.561
</DataArray>
</FieldData>
<Piece NumberOfCells='808' NumberOfPoints='808'>
<Points>
<DataArray NumberOfComponents='3' type='Float64' Name='position' format='ascii'>
0 0 0
0 0.025 0
0 0.05 0
0 0.075 0
0 0.1 0
0 0.125 0
0 0.15 0
0 0.175 0
0.025 0 0
0.05 0 0
0.075 0 0
0.1 0 0
0.125 0 0
0.15 0 0
0.175 0 0
0.2 0 0
0.225 0 0
0.25 0 0
0.275 0 0
0.299881 -0.000140832 0
0.323445 -0.00616932 0
0.340109 -0.00801498 0
0.373573 -0.0470617 0
0.399507 -0.069806 0
0.426033 -0.0910009 0
0.45306 -0.107918 0
0.476334 -0.121727 0
0.501996 -0.138925 0
0.527594 -0.150175 0
0.551259 -0.16653 0
0.577821 -0.182464 0
0.602939 -0.193813 0
0.628092 -0.207625 0
0.65142 -0.219851 0
0.677363 -0.233172 0
0.702451 -0.246859 0
0.725984 -0.260058 0
0.753565 -0.272484 0
0.776334 -0.283381 0
0.799497 -0.295874 0
0.827554 -0.308888 0
0.85144 -0.320033 0
0.874888 -0.331433 0
0.901671 -0.343697 0
0.927146 -0.35492 0
0.951227 -0.365569 0
0.975744 -0.376297 0
1.001 -0.386399 0
1.02673 -0.396638 0
1.05157 -0.407362 0
1.07596 -0.417271 0
1.10161 -0.426319 0
1.12738 -0.435921 0
1.15173 -0.445779 0
1.17595 -0.454733 0
1.20118 -0.463237 0
1.22657 -0.472048 0
1.25134 -0.480745 0
1.27575 -0.489206 0
1.30034 -0.497895 0
1.32546 -0.506516 0
1.35092 -0.514424 0
1.37609 -0.521789 0
1.40058 -0.529137 0
1.42479 -0.536456 0
1.44949 -0.543381 0
1.47491 -0.549891 0
1.50055 -0.556281 0
1.52583 -0.562693 0
1.55068 -0.568924 0
1.57545 -0.574751 0
1.60042 -0.580151 0
1.62557 -0.585228 0
1.65076 -0.590052 0
1.67591 -0.594662 0
1.70104 -0.599123 0
1.7262 -0.603521 0
1.75133 -0.607959 0
1.77638 -0.612442 0
1.8013 -0.616875 0
1.8261 -0.621152 0
1.85082 -0.625216 0
1.87556 -0.629056 0
1.90039 -0.632663 0
1.92534 -0.636009 0
1.9504 -0.639061 0
1.97555 -0.641798 0
2.00073 -0.644229 0
2.02592 -0.646373 0
2.05108 -0.648252 0
2.07623 -0.649874 0
2.10134 -0.651242 0
2.12643 -0.652359 0
2.15149 -0.653238 0
2.17651 -0.653903 0
2.20151 -0.654386 0
2.22646 -0.654725 0
2.25139 -0.654953 0
2.27628 -0.655101 0
2.30116 -0.65519 0
2.32601 -0.655238 0
2.35087 -0.655257 0
2.37573 -0.655257 0
2.4006 -0.655243 0
2.42549 -0.655223 0
2.45041 -0.655201 0
2.47535 -0.655181 0
2.50032 -0.655169 0
0.0245335 0.0249365 0
0.0494448 0.0215829 0
0.0746941 0.0229336 0
0.0998787 0.02354 0
0.124843 0.0231596 0
0.148994 0.0228205 0
0.173866 0.0234747 0
0.199815 0.0213481 0
0.223954 0.0227235 0
0.245715 0.0189711 0
0.271857 0.019285 0
0.306025 0.00774926 0
0.325136 0.00368669 0
0.350043 -0.00922366 0
0.37502 -0.0284298 0
0.403819 -0.0482707 0
0.426902 -0.0638146 0
0.451097 -0.0800163 0
0.476514 -0.096272 0
0.502901 -0.114063 0
0.52811 -0.127041 0
0.552265 -0.141959 0
0.577774 -0.155706 0
0.601648 -0.168984 0
0.625656 -0.183696 0
0.653029 -0.199233 0
0.67951 -0.210069 0
0.700652 -0.220274 0
0.724957 -0.234811 0
0.752974 -0.247438 0
0.776475 -0.259062 0
0.800575 -0.272371 0
0.827302 -0.28466 0
0.851657 -0.295737 0
0.875743 -0.307491 0
0.901216 -0.318984 0
0.926162 -0.329769 0
0.951034 -0.341031 0
0.976234 -0.352224 0
1.00139 -0.362431 0
1.02663 -0.372205 0
1.05137 -0.382417 0
1.0759 -0.39247 0
1.10143 -0.401874 0
1.12719 -0.411338 0
1.15183 -0.420966 0
1.17614 -0.43011 0
1.20117 -0.438861 0
1.22643 -0.447495 0
1.25122 -0.455954 0
1.27574 -0.464441 0
1.30047 -0.473189 0
1.32554 -0.481767 0
1.35076 -0.489621 0
1.3758 -0.496966 0
1.40048 -0.504296 0
1.42499 -0.511622 0
1.44977 -0.518608 0
1.47498 -0.525195 0
1.5004 -0.531602 0
1.52567 -0.537929 0
1.55064 -0.544053 0
1.57551 -0.549852 0
1.60048 -0.555287 0
1.62559 -0.560394 0
1.65075 -0.565215 0
1.6759 -0.569804 0
1.70105 -0.574265 0
1.72619 -0.578674 0
1.75131 -0.583097 0
1.77634 -0.587534 0
1.80126 -0.59191 0
1.82607 -0.596146 0
1.85082 -0.600199 0
1.87558 -0.604051 0
1.90042 -0.60768 0
1.92537 -0.611048 0
1.95042 -0.614115 0
1.97556 -0.61686 0
2.00073 -0.61929 0
2.02591 -0.621428 0
2.05108 -0.623295 0
2.07622 -0.624903 0
2.10133 -0.626258 0
2.12642 -0.627364 0
2.15148 -0.628232 0
2.17651 -0.628888 0
2.2015 -0.629362 0
2.22646 -0.629692 0
2.25138 -0.629912 0
2.27628 -0.630053 0
2.30115 -0.630138 0
2.32601 -0.630184 0
2.35087 -0.630205 0
2.37573 -0.630208 0
2.40061 -0.6302 0
2.4255 -0.630188 0
2.45042 -0.630173 0
2.47536 -0.630161 0
2.50032 -0.630154 0
0.0246231 0.049245 0
0.0487625 0.0481828 0
0.0736473 0.049726 0
0.0986243 0.0449918 0
0.123827 0.0456809 0
0.148017 0.0430068 0
0.173588 0.0419299 0
0.19825 0.0386079 0
0.226244 0.0390973 0
0.248334 0.0319411 0
0.273242 0.035777 0
0.298989 0.0286988 0
0.32556 0.0158302 0
0.356221 0.00368568 0
0.374872 -0.00791206 0
0.402701 -0.0289401 0
0.427658 -0.0426161 0
0.45096 -0.0578919 0
0.477496 -0.0762301 0
0.502942 -0.0890149 0
0.526046 -0.103785 0
0.552144 -0.116851 0
0.57771 -0.132205 0
0.602765 -0.145685 0
0.627241 -0.15716 0
0.651302 -0.171178 0
0.677031 -0.18548 0
0.702294 -0.198165 0
0.72714 -0.210482 0
0.751573 -0.221909 0
0.775468 -0.234446 0
0.801461 -0.248611 0
0.827428 -0.259784 0
0.851312 -0.27052 0
0.875871 -0.282983 0
0.901252 -0.294296 0
0.926082 -0.304969 0
0.95106 -0.316588 0
0.976307 -0.327873 0
1.00143 -0.337772 0
1.02657 -0.347468 0
1.05134 -0.357427 0
1.07589 -0.36744 0
1.1013 -0.377228 0
1.12706 -0.386641 0
1.15188 -0.395929 0
1.17626 -0.405279 0
1.2012 -0.414302 0
1.22636 -0.422787 0
1.25115 -0.431059 0
1.27574 -0.439523 0
1.30053 -0.44821 0
1.32555 -0.456717 0
1.35062 -0.464627 0
1.37559 -0.472078 0
1.40041 -0.479424 0
1.42514 -0.486681 0
1.44997 -0.493672 0
1.47506 -0.500336 0
1.50032 -0.506787 0
1.52554 -0.513095 0
1.5506 -0.519156 0
1.57555 -0.524896 0
1.60054 -0.530339 0
1.62562 -0.535494 0
1.65076 -0.540318 0
1.6759 -0.544893 0
1.70105 -0.549352 0
1.72619 -0.553764 0
1.75129 -0.558172 0
1.7763 -0.562571 0
1.80122 -0.566906 0
1.82604 -0.571115 0
1.85081 -0.575164 0
1.87559 -0.57903 0
1.90044 -0.582681 0
1.92539 -0.58607 0
1.95044 -0.589153 0
1.97557 -0.591908 0
2.00073 -0.594341 0
2.02591 -0.596475 0
2.05107 -0.598334 0
2.07622 -0.599932 0
2.10133 -0.601276 0
2.12642 -0.602371 0
2.15148 -0.60323 0
2.17651 -0.603876 0
2.2015 -0.604341 0
2.22646 -0.604662 0
2.25138 -0.604875 0
2.27628 -0.605009 0
2.30115 -0.60509 0
2.32602 -0.605134 0
2.35087 -0.605156 0
2.37574 -0.605162 0
2.40061 -0.60516 0
2.4255 -0.605154 0
2.45042 -0.605146 0
2.47536 -0.60514 0
2.50033 -0.605136 0
0.0242333 0.0725717 0
0.0496447 0.0721301 0
0.0746967 0.0714882 0
0.0984706 0.0674849 0
0.12406 0.0700515 0
0.149281 0.0641554 0
0.1728 0.0685547 0
0.197776 0.0616623 0
0.225394 0.063341 0
0.247758 0.0588647 0
0.275213 0.0527105 0
0.302996 0.0487444 0
0.324674 0.0375512 0
0.353882 0.028196 0
0.378289 0.0056329 0
0.402277 -0.00498307 0
0.428796 -0.019337 0
0.45273 -0.0374071 0
0.477752 -0.0512299 0
0.503174 -0.0626365 0
0.52581 -0.0781598 0
0.552809 -0.0955042 0
0.577709 -0.104107 0
0.600628 -0.120408 0
0.627443 -0.134819 0
0.652616 -0.145176 0
0.676192 -0.159617 0
0.702218 -0.17364 0
0.728028 -0.186239 0
0.751565 -0.198061 0
0.77565 -0.210467 0
0.801493 -0.223035 0
0.82667 -0.234076 0
0.850917 -0.246036 0
0.876018 -0.258367 0
0.90145 -0.269556 0
0.926431 -0.280768 0
0.951293 -0.292025 0
0.97611 -0.302832 0
1.00115 -0.312969 0
1.02649 -0.322674 0
1.05144 -0.33252 0
1.07609 -0.342687 0
1.1013 -0.352541 0
1.12684 -0.361718 0
1.15177 -0.370923 0
1.17634 -0.38044 0
1.20126 -0.389583 0
1.22634 -0.39803 0
1.25112 -0.406209 0
1.27575 -0.414567 0
1.30053 -0.423145 0
1.3255 -0.431603 0
1.35051 -0.4396 0
1.37546 -0.447174 0
1.40035 -0.454551 0
1.42521 -0.461764 0
1.45012 -0.468713 0
1.47514 -0.475419 0
1.50029 -0.481951 0
1.52546 -0.48827 0
1.55056 -0.494276 0
1.57558 -0.49997 0
1.60058 -0.505408 0
1.62565 -0.510575 0
1.65076 -0.515402 0
1.6759 -0.519968 0
1.70105 -0.524423 0
1.72618 -0.528829 0
1.75127 -0.53322 0
1.77628 -0.537589 0
1.80119 -0.541893 0
1.82602 -0.546085 0
1.8508 -0.550135 0
1.8756 -0.554016 0
1.90045 -0.557688 0
1.92541 -0.561098 0
1.95045 -0.564198 0
1.97557 -0.566963 0
2.00074 -0.5694 0
2.02591 -0.571532 0
2.05107 -0.573384 0
2.07621 -0.574973 0
2.10133 -0.576306 0
2.12642 -0.57739 0
2.15148 -0.578237 0
2.17651 -0.578872 0
2.2015 -0.579327 0
2.22646 -0.579637 0
2.25138 -0.57984 0
2.27628 -0.579967 0
2.30115 -0.580042 0
2.32602 -0.580084 0
2.35087 -0.580106 0
2.37574 -0.580116 0
2.40061 -0.580119 0
2.42551 -0.580119 0
2.45042 -0.580118 0
2.47536 -0.580116 0
2.50033 -0.580115 0
0.024388 0.0981422 0
0.0498014 0.0970173 0
0.0732174 0.0965896 0
0.0981789 0.0948085 0
0.124205 0.0957367 0
0.148731 0.0901424 0
0.173163 0.0924679 0
0.198425 0.08643 0
0.225624 0.0854854 0
0.250601 0.081173 0
0.274707 0.0744439 0
0.302295 0.066671 0
0.327744 0.0555417 0
0.354305 0.0470224 0
0.378675 0.0284389 0
0.402755 0.0198144 0
0.428544 0.00178105 0
0.451622 -0.0126693 0
0.477448 -0.0235976 0
0.502833 -0.0389622 0
0.526706 -0.0544534 0
0.5525 -0.0693963 0
0.577953 -0.0812504 0
0.601472 -0.09689 0
0.627344 -0.110816 0
0.653357 -0.121119 0
0.676509 -0.134126 0
0.700838 -0.147551 0
0.727012 -0.161521 0
0.752122 -0.1742 0
0.776578 -0.185811 0
0.801487 -0.197544 0
0.826222 -0.209284 0
0.850821 -0.221409 0
0.876025 -0.233741 0
0.90147 -0.24536 0
0.926567 -0.256152 0
0.951344 -0.266955 0
0.976034 -0.277769 0
1.001 -0.288101 0
1.02636 -0.297998 0
1.05157 -0.307931 0
1.07634 -0.317955 0
1.10132 -0.327752 0
1.12661 -0.3369 0
1.15162 -0.34596 0
1.17638 -0.355496 0
1.20133 -0.364787 0
1.22634 -0.373256 0
1.25111 -0.381374 0
1.27574 -0.389641 0
1.30052 -0.398096 0
1.32545 -0.4065 0
1.35042 -0.414594 0
1.37536 -0.422298 0
1.40029 -0.42969 0
1.42522 -0.436837 0
1.45019 -0.443769 0
1.47521 -0.450528 0
1.5003 -0.457114 0
1.52543 -0.463446 0
1.55054 -0.469426 0
1.57559 -0.475081 0
1.60061 -0.480494 0
1.62566 -0.485656 0
1.65076 -0.490484 0
1.67591 -0.495049 0
1.70106 -0.499497 0
1.72619 -0.50389 0
1.75126 -0.508261 0
1.77626 -0.512606 0
1.80117 -0.516888 0
1.82601 -0.521068 0
1.85079 -0.525119 0
1.87559 -0.529015 0
1.90045 -0.532709 0
1.92541 -0.536141 0
1.95046 -0.539257 0
1.97558 -0.542032 0
2.00074 -0.544471 0
2.02591 -0.5466 0
2.05107 -0.548445 0
2.07621 -0.550024 0
2.10133 -0.551347 0
2.12642 -0.552419 0
2.15148 -0.553254 0
2.17651 -0.553876 0
2.20151 -0.554318 0
2.22646 -0.554616 0
2.25139 -0.554808 0
2.27628 -0.554926 0
2.30116 -0.554995 0
2.32602 -0.555034 0
2.35088 -0.555057 0
2.37574 -0.55507 0
2.40061 -0.555078 0
2.42551 -0.555084 0
2.45042 -0.555088 0
2.47536 -0.555091 0
2.50033 -0.555093 0
0.0241281 0.124758 0
0.0493321 0.123271 0
0.0731116 0.123262 0
0.09949 0.121347 0
0.123014 0.123405 0
0.148329 0.122599 0
0.174885 0.118451 0
0.197648 0.117917 0
0.226223 0.111493 0
0.251618 0.102069 0
0.274563 0.101192 0
0.301744 0.0910539 0
0.327414 0.0806334 0
0.353045 0.068548 0
0.377944 0.0559087 0
0.403011 0.0430422 0
0.428681 0.0287859 0
0.452495 0.0119643 0
0.478079 0.000486561 0
0.50246 -0.0192432 0
0.526319 -0.0297999 0
0.552693 -0.0460181 0
0.577765 -0.0591929 0
0.60249 -0.0685046 0
0.626845 -0.0844192 0
0.652254 -0.0979748 0
0.676781 -0.110239 0
0.701159 -0.124433 0
0.727023 -0.136591 0
0.751986 -0.14746 0
0.776155 -0.160455 0
0.801348 -0.173821 0
0.826704 -0.185339 0
0.851369 -0.196738 0
0.875997 -0.208799 0
0.90105 -0.220626 0
0.926306 -0.231477 0
0.951356 -0.241717 0
0.976147 -0.252789 0
1.00107 -0.26359 0
1.0263 -0.27336 0
1.05151 -0.283241 0
1.07645 -0.293204 0
1.10132 -0.302983 0
1.12642 -0.312183 0
1.15154 -0.321121 0
1.17646 -0.330499 0
1.20137 -0.339806 0
1.22631 -0.348445 0
1.25108 -0.356602 0
1.27574 -0.364731 0
1.30051 -0.373077 0
1.32542 -0.381479 0
1.35035 -0.389617 0
1.37527 -0.397381 0
1.40022 -0.404804 0
1.42521 -0.411928 0
1.45022 -0.418854 0
1.47525 -0.425658 0
1.50033 -0.432281 0
1.52544 -0.438614 0
1.55055 -0.444582 0
1.5756 -0.450207 0
1.6006 -0.455582 0
1.62564 -0.460734 0
1.65075 -0.465568 0
1.67591 -0.470136 0
1.70107 -0.474575 0
1.7262 -0.478949 0
1.75126 -0.483301 0
1.77626 -0.487626 0
1.80117 -0.491889 0
1.826 -0.496056 0
1.85078 -0.500108 0
1.87558 -0.504019 0
1.90044 -0.507738 0
1.92539 -0.511196 0
1.95045 -0.514331 0
1.97558 -0.517115 0
2.00074 -0.519555 0
2.02591 -0.521679 0
2.05107 -0.523516 0
2.07622 -0.525086 0
2.10133 -0.526398 0
2.12643 -0.527458 0
2.15149 -0.52828 0
2.17652 -0.528888 0
2.20151 -0.529315 0
2.22647 -0.5296 0
2.25139 -0.529779 0
2.27629 -0.529887 0
2.30116 -0.529949 0
2.32602 -0.529985 0
2.35088 -0.530008 0
2.37574 -0.530024 0
2.40061 -0.530038 0
2.4255 -0.53005 0
2.45042 -0.53006 0
2.47536 -0.530068 0
2.50033 -0.530072 0
0.0250416 0.146872 0
0.0501347 0.144897 0
0.0748814 0.140978 0
0.0983346 0.140691 0
0.12474 0.136844 0
0.150724 0.133931 0
0.175339 0.129946 0
0.198819 0.128041 0
0.22386 0.127893 0
0.249598 0.124429 0
0.27829 0.115705 0
0.30129 0.107974 0
0.326947 0.10039 0
0.351515 0.0871713 0
0.377289 0.079151 0
0.403211 0.0623947 0
0.427966 0.0518337 0
0.454176 0.0360517 0
0.477694 0.0205564 0
0.503104 0.00888967 0
0.527534 -0.00522425 0
0.551519 -0.0160043 0
0.576572 -0.0303242 0
0.602152 -0.0485981 0
0.626626 -0.0603154 0
0.65181 -0.0717686 0
0.677251 -0.0866622 0
0.702026 -0.1003 0
0.726968 -0.11173 0
0.751666 -0.122988 0
0.776045 -0.13585 0
0.801074 -0.149497 0
0.826617 -0.161029 0
0.851668 -0.172045 0
0.87618 -0.183992 0
0.900874 -0.195733 0
0.926091 -0.206392 0
0.951394 -0.217058 0
0.976299 -0.228281 0
1.00111 -0.239119 0
1.02622 -0.248642 0
1.05138 -0.258294 0
1.07633 -0.26859 0
1.10127 -0.27847 0
1.12641 -0.287487 0
1.15156 -0.296331 0
1.17652 -0.305563 0
1.20141 -0.314839 0
1.22626 -0.323624 0
1.25101 -0.33184 0
1.27575 -0.339895 0
1.30055 -0.348158 0
1.3254 -0.356536 0
1.35026 -0.364702 0
1.37519 -0.372486 0
1.40018 -0.379922 0
1.4252 -0.387072 0
1.45021 -0.394008 0
1.47525 -0.400809 0
1.50034 -0.407466 0
1.52548 -0.41382 0
1.55058 -0.419744 0
1.5756 -0.425326 0
1.60058 -0.43069 0
1.6256 -0.435826 0
1.65072 -0.440665 0
1.67591 -0.445254 0
1.70108 -0.449675 0
1.72621 -0.454024 0
1.75127 -0.458358 0
1.77626 -0.462667 0
1.80117 -0.466911 0
1.826 -0.471061 0
1.85078 -0.475109 0
1.87556 -0.479036 0
1.90041 -0.482785 0
1.92537 -0.486272 0
1.95043 -0.489428 0
1.97557 -0.492219 0
2.00074 -0.494656 0
2.02592 -0.496772 0
2.05108 -0.498599 0
2.07622 -0.500159 0
2.10134 -0.50146 0
2.12643 -0.502509 0
2.1515 -0.503317 0
2.17653 -0.503909 0
2.20152 -0.504319 0
2.22648 -0.504588 0
2.2514 -0.504753 0
2.27629 -0.50485 0
2.30116 -0.504905 0
2.32602 -0.504937 0
2.35088 -0.50496 0
2.37574 -0.504979 0
2.40061 -0.504998 0
2.4255 -0.505016 0
2.45042 -0.505033 0
2.47536 -0.505046 0
2.50032 -0.505053 0
0.0241304 0.174324 0
0.0476873 0.174246 0
0.0734723 0.173759 0
0.0980167 0.172623 0
0.123936 0.170849 0
0.147543 0.169684 0
0.17537 0.168339 0
0.20211 0.162153 0
0.225587 0.157538 0
0.252901 0.150741 0
0.274504 0.144856 0
0.303093 0.136283 0
0.32764 0.126288 0
0.352489 0.11484 0
0.380041 0.101477 0
0.402707 0.0881376 0
0.427698 0.0726907 0
0.45326 0.0617513 0
0.476666 0.04633 0
0.502201 0.0328743 0
0.528185 0.0201206 0
0.551855 0.00340607 0
0.577416 -0.00960105 0
0.602547 -0.0200935 0
0.626728 -0.0353961 0
0.651928 -0.0496515 0
0.677277 -0.0605394 0
0.701395 -0.0740544 0
0.726029 -0.0879709 0
0.752091 -0.100362 0
0.777025 -0.112969 0
0.800788 -0.124958 0
0.825764 -0.135724 0
0.851515 -0.147247 0
0.876288 -0.159837 0
0.900864 -0.171198 0
0.9263 -0.181571 0
0.951615 -0.1929 0
0.976266 -0.204453 0
1.00098 -0.214523 0
1.02612 -0.223827 0
1.05127 -0.233746 0
1.07615 -0.244195 0
1.10119 -0.254097 0
1.12651 -0.263093 0
1.15163 -0.271735 0
1.17652 -0.280773 0
1.20141 -0.29016 0
1.22621 -0.299027 0
1.25094 -0.307144 0
1.27575 -0.31519 0
1.30059 -0.323517 0
1.32536 -0.331827 0
1.35016 -0.339905 0
1.37512 -0.347747 0
1.40017 -0.355258 0
1.4252 -0.362373 0
1.45018 -0.369257 0
1.47521 -0.376096 0
1.50034 -0.382797 0
1.52552 -0.389127 0
1.55063 -0.394992 0
1.57561 -0.400522 0
1.60054 -0.405858 0
1.62555 -0.410998 0
1.6507 -0.415863 0
1.67591 -0.420448 0
1.7011 -0.424835 0
1.72622 -0.429152 0
1.75128 -0.43347 0
1.77628 -0.437764 0
1.80119 -0.441981 0
1.82601 -0.446102 0
1.85077 -0.450139 0
1.87553 -0.454081 0
1.90037 -0.457863 0
1.92534 -0.461386 0
1.95041 -0.464562 0
1.97556 -0.467357 0
2.00074 -0.469784 0
2.02592 -0.471885 0
2.05108 -0.473699 0
2.07622 -0.475246 0
2.10134 -0.476535 0
2.12644 -0.47757 0
2.15151 -0.478362 0
2.17654 -0.478936 0
2.20154 -0.479327 0
2.22649 -0.479577 0
2.25141 -0.479726 0
2.2763 -0.479811 0
2.30117 -0.479857 0
2.32602 -0.479886 0
2.35088 -0.479909 0
2.37573 -0.479931 0
2.4006 -0.479955 0
2.42549 -0.479981 0
2.45041 -0.480005 0
2.47535 -0.480026 0
2.50032 -0.480039 0
</DataArray>
</Points>
<PointData>
<DataArray NumberOfComponents='1' type='Int32' Name='Particle Type' format='ascii'>
0
0
0
0
0
0
0
0
0
0
0
0
0
0
0
0
0
0
0
0
0
0
1
1
1
1
1
1
1
1
1
1
1
1
1
1
1
1
1
1
1
1
1
1
1
1
1
1
1
1
1
1
1
1
1
1
1
1
1
1
1
1
1
1
1
1
1
1
1
1
1
1
1
1
1
1
1
1
1
1
1
1
1
1
1
1
1
1
1
1
1
1
1
1
1
1
1
1
1
1
1
1
1
1
1
1
1
1
1
1
1
1
1
1
1
1
1
1
1
1
1
1
1
1
1
1
1
1
1
1
1
1
1
1
1
1
1
1
1
1
1
1
1
1
1
1
1
1
1
1
1
1
1
1
1
1
1
1
1
1
1
1
1
1
1
1
1
1
1
1
1
1
1
1
1
1
1
1
1
1
1
1
1
1
1
1
1
1
1
1
1
1
1
1
1
1
1
1
1
1
1
1
1
1
1
1
1
1
1
1
1
1
1
1
1
1
1
1
1
1
1
1
1
1
1
1
1
1
1
1
1
1
1
1
1
1
1
1
1
1
1
1
1
1
1
1
1
1
1
1
1
1
1
1
1
1
1
1
1
1
1
1
1
1
1
1
1
1
1
1
1
1
1
1
1
1
1
1
1
1
1
1
1
1
1
1
1
1
1
1
1
1
1
1
1
1
1
1
1
1
1
1
1
1
1
1
1
1
1
1
1
1
1
1
1
1
1
1
1
1
1
1
1
1
1
1
1
1
1
1
1
1
1
1
1
1
1
1
1
1
1
1
1
1
1
1
1
1
1
1
1
1
1
1
1
1
1
1
1
1
1
1
1
1
1
1
1
1
1
1
1
1
1
1
1
1
1
1
1
1
1
1
1
1
1
1
1
1
1
1
1
1
1
1
1
1
1
1
1
1
1
1
1
1
1
1
1
1
1
1
1
1
1
1
1
1
1
1
1
1
1
1
1
1
1
1
1
1
1
1
1
1
1
1
1
1
1
1
1
1
1
1
1
1
1
1
1
1
1
1
1
1
1
1
1
1
1
1
1
1
1
1
1
1
1
1
1
1
1
1
1
1
1
1
1
1
1
1
1
1
1
1
1
1
1
1
1
1
1
1
1
1
1
1
1
1
1
1
1
1
1
1
1
1
1
1
1
1
1
1
1
1
1
1
1
1
1
1
1
1
1
1
1
1
1
1
1
1
1
1
1
1
1
1
1
1
1
1
1
1
1
1
1
1
1
1
1
1
1
1
1
1
1
1
1
1
1
1
1
1
1
1
1
1
1
1
1
1
1
1
1
1
1
1
1
1
1
1
1
1
1
1
1
1
1
1
1
1
1
1
1
1
1
1
1
1
1
1
1
1
1
1
1
1
1
1
1
1
1
1
1
1
1
1
1
1
1
1
1
1
1
1
1
1
1
1
1
1
1
1
1
1
1
1
1
1
1
1
1
1
1
1
1
1
1
1
1
1
1
1
1
1
1
1
1
1
1
1
1
1
1
1
1
1
1
1
1
1
1
1
1
1
1
1
1
1
1
1
1
1
1
1
1
1
1
1
1
1
1
1
1
1
1
1
1
1
1
1
1
1
1
1
1
1
1
1
1
1
1
1
1
1
1
1
1
1
1
1
1
1
1
1
1
1
1
1
1
1
1
1
1
1
1
1
1
1
1
1
1
1
1
1
1
1
1
1
1
1
1
1
1
1
1
1
1
1
1
1
1
1
1
1
1
1
1
1
1
1
1
1
1
1
1
1
1
1
1
1
1
1
1
1
1
1
1
1
1
1
1
1
1
1
1
1
1
1
1
1
1
1
1
1
1
1
1
1
1
1
</DataArray>
<DataArray NumberOfComponents='3' type='Float64' Name='Velocity' format='ascii'>
0 0 0
0 0 0
0 0 0
0 0 0
0 0 0
0 0 0
0 0 0
0 0 0
0 0 0
0 0 0
0 0 0
0 0 0
0 0 0
0 0 0
0 0 0
0 0 0
0 0 0
0 0 0
0 0 0
-0.047379 -0.0530152 0
-0.0131572 -0.101263 0
-0.0400227 -0.0455907 0
0.0516078 -0.0572457 0
0.00527025 0.0214299 0
-0.0664207 0.0467483 0
-0.00254538 -0.10915 0
0.0385833 -0.037743 0
-0.0473273 -0.102177 0
0.0282007 -0.126125 0
-0.027249 0.039283 0
-0.0494764 -0.132264 0
-0.015916 -0.136924 0
0.0228022 -0.126336 0
0.0302474 -0.132723 0
-0.0524909 -0.0688024 0
0.0326745 -0.0845718 0
-0.0348137 -0.106563 0
-0.0200224 -0.164382 0
0.104508 -0.162114 0
-0.0438863 -0.106099 0
-0.0478221 -0.137945 0
0.0609602 -0.166449 0
-0.0247699 -0.132568 0
-0.0570403 -0.139395 0
0.00831981 -0.176684 0
0.0218623 -0.181399 0
0.000671289 -0.187387 0
-0.0249098 -0.194698 0
-0.0197204 -0.176991 0
0.00944664 -0.183096 0
-0.00629601 -0.218501 0
-0.0336747 -0.224092 0
-0.00430319 -0.206579 0
0.0243299 -0.219806 0
0.00316805 -0.244381 0
-0.017813 -0.24195 0
-0.00696756 -0.235712 0
0.0107424 -0.243531 0
0.0133961 -0.243142 0
0.000167329 -0.238606 0
-0.0160451 -0.253536 0
-0.0160511 -0.277135 0
0.00394543 -0.28578 0
0.022737 -0.284201 0
0.0178439 -0.290162 0
-0.00599432 -0.30372 0
-0.0230803 -0.312706 0
-0.0191284 -0.31342 0
-0.0037652 -0.314994 0
0.0055517 -0.323882 0
0.00295657 -0.336887 0
-0.00418224 -0.348464 0
-0.00792004 -0.357075 0
-0.00752815 -0.36406 0
-0.00651219 -0.369453 0
-0.00658911 -0.372918 0
-0.00651306 -0.373348 0
-0.00460437 -0.371912 0
-0.000648625 -0.372097 0
0.00405769 -0.375685 0
0.00765637 -0.381834 0
0.00875185 -0.388839 0
0.00703755 -0.395943 0
0.00333703 -0.403526 0
-0.000910908 -0.412126 0
-0.0043883 -0.421632 0
-0.00640961 -0.431352 0
-0.00698928 -0.440608 0
-0.0065713 -0.449184 0
-0.00567569 -0.457288 0
-0.0046596 -0.465227 0
-0.00365703 -0.473112 0
-0.00264634 -0.480769 0
-0.00155982 -0.487856 0
-0.00036586 -0.494038 0
0.000903449 -0.49912 0
0.00216578 -0.503087 0
0.00331908 -0.506063 0
0.00427082 -0.508234 0
0.00495765 -0.509792 0
0.00535432 -0.510893 0
0.00547393 -0.511652 0
0.00536223 -0.512149 0
0.00508791 -0.512442 0
0.00473111 -0.512581 0
0.00437177 -0.512615 0
0.00407806 -0.512594 0
0.00389038 -0.512571 0
0.0264326 -0.0906298 0
-0.00936303 -0.0165745 0
-0.0558371 -0.0297131 0
0.00328456 0.00242577 0
0.0256703 -0.126634 0
-0.00270816 -0.0456431 0
-0.0046566 -0.132695 0
0.0720102 -0.00261906 0
-0.0806274 -0.107655 0
-0.00687608 0.0763441 0
0.186404 0.0220103 0
-0.195642 0.0785137 0
0.0884026 -0.118398 0
0.00681589 -0.00768504 0
-0.130384 -0.0333116 0
0.0141233 -0.139126 0
0.0867253 -0.12922 0
0.0113006 -0.0628405 0
-0.0390469 0.0429976 0
-0.0494772 -0.028584 0
0.0224844 -0.0849377 0
0.0117607 -0.0509839 0
0.0142435 -0.0879039 0
0.0540313 -0.0435814 0
-0.046084 0.00812629 0
-0.112623 -0.0952949 0
0.0631121 -0.26257 0
0.122273 -0.13868 0
-0.0830135 -0.0663736 0
-0.0507341 -0.141905 0
0.0551688 -0.113927 0
-0.0367108 -0.0983382 0
-0.0314216 -0.151122 0
0.0341439 -0.160348 0
0.00122668 -0.148995 0
-0.0110718 -0.172083 0
0.000494409 -0.169265 0
-0.0133033 -0.154251 0
-0.014257 -0.173596 0
-0.0120138 -0.202936 0
-0.00512281 -0.201392 0
0.0111835 -0.19281 0
-0.00615862 -0.20867 0
-0.0331775 -0.219218 0
-0.0128232 -0.211758 0
0.0169836 -0.218542 0
0.00729964 -0.235048 0
-0.0114128 -0.241267 0
-0.0048617 -0.245032 0
0.00934867 -0.248002 0
0.00870555 -0.241469 0
-0.00223238 -0.238474 0
-0.0103815 -0.25565 0
-0.008523 -0.278542 0
0.00238686 -0.28599 0
0.0123951 -0.283732 0
0.010479 -0.288701 0
-0.00266816 -0.30159 0
-0.0146532 -0.31115 0
-0.0149899 -0.314428 0
-0.00610401 -0.318303 0
0.00127457 -0.326226 0
0.00107086 -0.336561 0
-0.00349022 -0.347279 0
-0.00667741 -0.356663 0
-0.00702374 -0.364704 0
-0.00655879 -0.370101 0
-0.00649005 -0.372783 0
-0.00597658 -0.373478 0
-0.00391664 -0.373019 0
-0.000292973 -0.373919 0
0.00380362 -0.377368 0
0.00687939 -0.382681 0
0.00781426 -0.388738 0
0.00634462 -0.395256 0
0.00310797 -0.402705 0
-0.000717215 -0.41146 0
-0.00397446 -0.421233 0
-0.00599036 -0.431238 0
-0.00669823 -0.440751 0
-0.00643917 -0.449521 0
-0.00565859 -0.457732 0
-0.0046894 -0.465696 0
-0.00368254 -0.473552 0
-0.00264871 -0.481165 0
-0.00154529 -0.488218 0
-0.000350647 -0.494384 0
0.000905167 -0.49946 0
0.00214717 -0.503411 0
0.0032807 -0.506349 0
0.00421823 -0.508455 0
0.00489882 -0.509927 0
0.00529759 -0.510935 0
0.00542673 -0.511607 0
0.00533014 -0.512035 0
0.00507409 -0.512286 0
0.00473592 -0.51241 0
0.00439271 -0.512452 0
0.00410973 -0.512454 0
0.00392241 -0.512451 0
-0.0711128 0.0727669 0
0.0212233 0.120697 0
0.0439003 -0.0308905 0
0.00771392 0.147315 0
0.0349526 0.141597 0
-0.0212403 0.289062 0
-0.0218386 0.186529 0
0.100856 0.318847 0
-0.0692284 0.0869021 0
-0.132057 0.176222 0
0.193808 -0.143315 0
-0.0263458 0.240187 0
-0.110174 0.182249 0
0.24232 -0.174247 0
0.0067732 0.108097 0
-0.0519999 0.0848396 0
0.0487908 -0.123293 0
0.00235493 0.100258 0
-0.0652036 -0.0457715 0
0.0420077 -0.0782369 0
0.00516295 -0.0960806 0
-0.0562371 -0.0765554 0
-0.0234516 -0.037512 0
-0.00534502 -0.167279 0
0.0447414 -0.126703 0
-0.000113442 -0.0332408 0
-0.0415658 -0.0772235 0
-0.00881167 -0.129422 0
0.00752602 -0.154552 0
0.0323952 -0.14948 0
-0.00888198 -0.0685737 0
-0.0614985 -0.103544 0
-0.000382435 -0.194155 0
0.0314798 -0.14795 0
-0.00711122 -0.136669 0
-0.00732046 -0.178078 0
-0.000325396 -0.160908 0
-0.0149454 -0.141681 0
-0.0146373 -0.182018 0
-0.00909819 -0.213278 0
-0.00300137 -0.208094 0
0.0107995 -0.201965 0
-0.0033534 -0.20101 0
-0.031651 -0.209958 0
-0.0179591 -0.219918 0
0.0123886 -0.220414 0
0.00883077 -0.223475 0
-0.00753217 -0.239993 0
-0.00309434 -0.253246 0
0.00818161 -0.252295 0
0.00654038 -0.243327 0
-0.00213188 -0.241902 0
-0.00654139 -0.255743 0
-0.00468788 -0.274477 0
0.000584422 -0.282959 0
0.00523117 -0.284697 0
0.0050015 -0.290251 0
-0.00119088 -0.299982 0
-0.00870619 -0.308929 0
-0.0111164 -0.313856 0
-0.00717011 -0.319364 0
-0.00196884 -0.328307 0
-0.000804631 -0.337649 0
-0.00331709 -0.346173 0
-0.00571405 -0.355935 0
-0.00640905 -0.365317 0
-0.00642266 -0.370679 0
-0.00634398 -0.372896 0
-0.00552778 -0.373773 0
-0.0033409 -0.373966 0
3.27374e-05 -0.375272 0
0.00364786 -0.378481 0
0.00630635 -0.383103 0
0.00710138 -0.388469 0
0.00578998 -0.394589 0
0.00287564 -0.401961 0
-0.000638387 -0.410837 0
-0.00371222 -0.420811 0
-0.00569488 -0.431038 0
-0.00647391 -0.440769 0
-0.00632297 -0.449721 0
-0.00563316 -0.458054 0
-0.00471222 -0.466076 0
-0.00371411 -0.47394 0
-0.00266787 -0.481536 0
-0.00154917 -0.488571 0
-0.000346345 -0.494728 0
0.000908709 -0.499795 0
0.00214385 -0.503729 0
0.00326842 -0.506627 0
0.00419821 -0.508669 0
0.0048743 -0.510057 0
0.00527273 -0.510973 0
0.00540572 -0.511559 0
0.00531653 -0.511919 0
0.00507018 -0.512125 0
0.00474224 -0.51223 0
0.00440753 -0.512272 0
0.00412854 -0.512284 0
0.0039367 -0.512287 0
-0.00472916 -0.0299868 0
0.0586752 -0.092044 0
-0.0495643 -0.145701 0
-0.0818048 -0.146819 0
-0.00164898 -0.183065 0
-0.0202178 -0.340291 0
-0.0421115 -0.257194 0
0.0555273 -0.196133 0
0.0766739 -0.439543 0
-0.0904661 0.0688903 0
-0.0146195 -0.359461 0
0.0891701 -0.160711 0
-0.212253 -0.144392 0
0.0243717 0.0369671 0
-0.0391255 0.0474149 0
-0.0245719 -0.206079 0
-0.0471299 0.0381886 0
0.0383706 -0.0485889 0
-0.0413806 -0.145227 0
0.0606166 -0.177948 0
0.00546025 0.0768435 0
-0.0593225 -0.172893 0
0.0671964 -0.163098 0
-0.0105476 0.033371 0
-0.0686943 -0.165993 0
0.0265501 -0.120038 0
-0.0103992 -0.0286225 0
-0.0616093 -0.0893284 0
0.0148495 -0.130761 0
0.0544088 -0.14296 0
-0.00715787 -0.116127 0
-0.0310035 -0.153983 0
0.00839997 -0.159689 0
0.00415101 -0.120381 0
-0.0231945 -0.144364 0
-0.0144196 -0.162118 0
-0.0025598 -0.15423 0
0.000652013 -0.167265 0
-0.00114928 -0.187572 0
-0.0130546 -0.208293 0
-0.0116194 -0.211717 0
0.00436125 -0.200175 0
-0.00127397 -0.19579 0
-0.0218668 -0.214983 0
-0.0149919 -0.226394 0
0.00633848 -0.216535 0
0.00532638 -0.217637 0
-0.00552005 -0.239041 0
-0.0015318 -0.256428 0
0.00766964 -0.256425 0
0.00656052 -0.248139 0
-0.000679749 -0.245111 0
-0.00450021 -0.254953 0
-0.00345965 -0.270049 0
-0.000711822 -0.279635 0
0.00111206 -0.284761 0
0.000964034 -0.291893 0
-0.00147633 -0.300354 0
-0.00534706 -0.306303 0
-0.00795223 -0.311721 0
-0.00708371 -0.31999 0
-0.00407596 -0.330058 0
-0.0023997 -0.338526 0
-0.00326229 -0.346177 0
-0.00492741 -0.355959 0
-0.00594461 -0.365846 0
-0.0063594 -0.371203 0
-0.00623767 -0.373234 0
-0.00515348 -0.374273 0
-0.00286221 -0.374831 0
0.0003176 -0.376272 0
0.00357424 -0.379185 0
0.0059351 -0.38325 0
0.00662957 -0.3881 0
0.00540482 -0.393929 0
0.00267345 -0.401249 0
-0.000654281 -0.410236 0
-0.00360038 -0.420396 0
-0.00553587 -0.430828 0
-0.00633359 -0.440756 0
-0.00623552 -0.449877 0
-0.00560446 -0.458336 0
-0.0047281 -0.466434 0
-0.00375046 -0.474332 0
-0.00270367 -0.481939 0
-0.00157323 -0.488975 0
-0.000356405 -0.49513 0
0.000909423 -0.500189 0
0.00215016 -0.504097 0
0.00327568 -0.506945 0
0.00420347 -0.508912 0
0.00487654 -0.510206 0
0.00527254 -0.511021 0
0.00540469 -0.511514 0
0.00531656 -0.5118 0
0.00507286 -0.511958 0
0.00474829 -0.512038 0
0.0044164 -0.512074 0
0.00413809 -0.512089 0
0.0039431 -0.512094 0
0.0599327 -0.0195289 0
0.000758668 0.0480575 0
-0.0731128 0.105106 0
0.0363519 0.0986773 0
0.0667873 0.0288086 0
0.0311753 0.0517632 0
0.0240695 -0.0208275 0
-0.0701845 0.047297 0
0.00655704 -0.0875943 0
-0.0558032 0.109299 0
-0.0163511 0.184824 0
0.183056 -0.0221866 0
-0.114024 -0.00107111 0
0.0796496 -0.0263951 0
0.0250258 -0.0157175 0
0.00300716 -0.178524 0
0.0184069 0.106885 0
0.0278622 -0.24926 0
-0.057983 -0.0912384 0
0.00391625 -0.0246441 0
-0.00373007 -0.00736853 0
-0.0514418 -0.0855061 0
0.020341 -0.0768218 0
0.00557685 0.00102439 0
-0.0628246 -0.184732 0
0.02004 -0.17325 0
0.0606728 -0.106497 0
-0.02268 -0.0703666 0
-0.0410994 -0.0667016 0
-0.000792116 -0.137266 0
0.00567669 -0.162983 0
0.00447649 -0.153607 0
0.0114513 -0.134197 0
-0.00547956 -0.118391 0
-0.0260183 -0.128829 0
-0.0192585 -0.162833 0
-0.00242296 -0.179171 0
0.0061963 -0.176396 0
0.00255878 -0.184811 0
-0.0122923 -0.198735 0
-0.0188334 -0.203225 0
-0.00457989 -0.200472 0
0.00169428 -0.202337 0
-0.0101047 -0.216898 0
-0.0102132 -0.230423 0
0.000837972 -0.219409 0
0.000307477 -0.213319 0
-0.00537816 -0.235972 0
-0.000246825 -0.258095 0
0.00827105 -0.259678 0
0.00712987 -0.252277 0
0.000212351 -0.248947 0
-0.00329269 -0.25394 0
-0.00267917 -0.265114 0
-0.00136469 -0.276637 0
-0.00105909 -0.285994 0
-0.00168129 -0.293441 0
-0.00280882 -0.299298 0
-0.0043556 -0.30407 0
-0.00601504 -0.310314 0
-0.00647896 -0.319994 0
-0.00499293 -0.331041 0
-0.00315836 -0.339732 0
-0.00300458 -0.346985 0
-0.00436868 -0.35639 0
-0.00582953 -0.366187 0
-0.00653656 -0.371645 0
-0.00623643 -0.373777 0
-0.00485714 -0.374933 0
-0.00249451 -0.375598 0
0.000520504 -0.377005 0
0.00355577 -0.379655 0
0.00578358 -0.383294 0
0.00644745 -0.387723 0
0.00523898 -0.393281 0
0.00253528 -0.400536 0
-0.000753739 -0.40963 0
-0.00364759 -0.419995 0
-0.00552878 -0.43065 0
-0.0062888 -0.440772 0
-0.00618321 -0.450044 0
-0.00557407 -0.458614 0
-0.00473367 -0.466788 0
-0.00378611 -0.474735 0
-0.00275146 -0.482373 0
-0.00161469 -0.489428 0
-0.000379888 -0.49559 0
0.000906718 -0.50064 0
0.00216431 -0.504516 0
0.00329971 -0.507304 0
0.00423057 -0.509184 0
0.0049018 -0.510373 0
0.00529338 -0.51108 0
0.00542039 -0.511474 0
0.00532758 -0.511682 0
0.00508016 -0.511788 0
0.00475293 -0.511842 0
0.00441928 -0.51187 0
0.00413995 -0.511885 0
0.0039445 -0.511892 0
-0.00299521 0.00595544 0
-0.0342914 0.0340478 0
0.0303343 -0.0772516 0
0.000517009 0.0768434 0
-0.0667385 0.0777805 0
-0.0548149 0.316077 0
-0.0108467 0.085651 0
-0.0786271 0.328397 0
0.156508 0.275109 0