<?xml version='1.0' encoding='UTF-8'?>
<VTKFile byte_order='LittleEndian' version='0.1' type = 'UnstructuredGrid'>
<UnstructuredGrid>
<FieldData>
<DataArray type='Float64' Name='Time' NumberOfComponents='1' NumberOfTuples='1' format='ascii'>
3.201
</DataArray>
</FieldData>
<Piece NumberOfCells='808' NumberOfPoints='808'>
<Points>
<DataArray NumberOfComponents='3' type='Float64' Name='position' format='ascii'>
0 0 0
0 0.025 0
0 0.05 0
0 0.075 0
0 0.1 0
0 0.125 0
0 0.15 0
0 0.175 0
0.025 0 0
0.05 0 0
0.075 0 0
0.1 0 0
0.125 0 0
0.15 0 0
0.175267 -0.000179386 0
0.200385 -0.000767574 0
0.225 0 0
0.247597 -0.005839 0
0.268647 -0.00566543 0
0.29205 -0.00834367 0
0.3195 -0.0208615 0
0.334963 -0.00978563 0
0.369652 -0.0532772 0
0.400487 -0.0968009 0
0.423098 -0.115147 0
0.440019 -0.146405 0
0.473123 -0.151323 0
0.501084 -0.17955 0
0.526891 -0.199702 0
0.553625 -0.224471 0
0.578758 -0.243133 0
0.597271 -0.24632 0
0.624809 -0.272544 0
0.635887 -0.288236 0
0.672897 -0.306931 0
0.703089 -0.319895 0
0.720333 -0.341616 0
0.756623 -0.370348 0
0.775419 -0.376933 0
0.798342 -0.39535 0
0.831286 -0.40471 0
0.84028 -0.413411 0
0.875019 -0.443 0
0.909568 -0.457991 0
0.91753 -0.464205 0
0.950796 -0.485422 0
0.981363 -0.497317 0
0.99335 -0.503675 0
1.02095 -0.521597 0
1.05306 -0.538475 0
1.07286 -0.548764 0
1.09441 -0.561806 0
1.12264 -0.576272 0
1.14982 -0.589667 0
1.1727 -0.60303 0
1.19459 -0.614802 0
1.22204 -0.626399 0
1.25028 -0.640485 0
1.27171 -0.654112 0
1.29418 -0.665014 0
1.32321 -0.67619 0
1.34972 -0.68928 0
1.37106 -0.701496 0
1.39493 -0.711852 0
1.42262 -0.722846 0
1.44918 -0.73503 0
1.47315 -0.746048 0
1.49654 -0.755554 0
1.52119 -0.765123 0
1.54763 -0.775273 0
1.57447 -0.785528 0
1.59957 -0.795679 0
1.62292 -0.805383 0
1.64684 -0.814361 0
1.67281 -0.823188 0
1.69965 -0.832558 0
1.72531 -0.842043 0
1.74937 -0.850727 0
1.77299 -0.858535 0
1.79736 -0.866351 0
1.82276 -0.874854 0
1.8486 -0.883498 0
1.87397 -0.89135 0
1.89855 -0.89843 0
1.92302 -0.905318 0
1.94804 -0.912181 0
1.9735 -0.918869 0
1.99892 -0.925393 0
2.02413 -0.931814 0
2.0493 -0.938026 0
2.07456 -0.94383 0
2.0999 -0.949112 0
2.12527 -0.953917 0
2.15065 -0.958394 0
2.17603 -0.962718 0
2.20137 -0.967023 0
2.22666 -0.97139 0
2.2519 -0.975842 0
2.27707 -0.980335 0
2.30215 -0.984779 0
2.3271 -0.989046 0
2.35192 -0.992991 0
2.37663 -0.996472 0
2.40129 -0.999383 0
2.42596 -1.00167 0
2.45069 -1.00334 0
2.4755 -1.00441 0
2.50038 -1.00498 0
0.0211409 0.0254183 0
0.0568496 0.0258029 0
0.070249 0.0247066 0
0.0870496 0.0169223 0
0.12605 0.0126786 0
0.140896 0.0241406 0
0.166963 0.00539219 0
0.19581 0.0249749 0
0.216618 0.0145406 0
0.242888 0.0169949 0
0.272333 0.00576631 0
0.289945 0.00143225 0
0.321514 -0.00650577 0
0.345746 -0.0135173 0
0.369356 -0.0422419 0
0.392809 -0.0601195 0
0.416008 -0.0831883 0
0.457667 -0.125663 0
0.48424 -0.136112 0
0.48698 -0.151347 0
0.54145 -0.186459 0
0.550212 -0.194244 0
0.577402 -0.224586 0
0.606139 -0.218166 0
0.619036 -0.258227 0
0.660029 -0.261652 0
0.676758 -0.270534 0
0.69093 -0.294965 0
0.735179 -0.314789 0
0.755365 -0.341255 0
0.76569 -0.348355 0
0.800556 -0.370262 0
0.837739 -0.390995 0
0.848542 -0.401118 0
0.874296 -0.411082 0
0.899775 -0.419027 0
0.91997 -0.439378 0
0.95101 -0.461334 0
0.979316 -0.470714 0
0.998022 -0.482691 0
1.0207 -0.498651 0
1.04804 -0.511691 0
1.07374 -0.524276 0
1.0976 -0.538105 0
1.12221 -0.551547 0
1.1478 -0.564376 0
1.17207 -0.577881 0
1.1965 -0.591072 0
1.2229 -0.60339 0
1.2481 -0.61602 0
1.27099 -0.628817 0
1.29583 -0.640645 0
1.32309 -0.652343 0
1.34845 -0.66471 0
1.37161 -0.676665 0
1.39607 -0.687735 0
1.42228 -0.698868 0
1.4481 -0.710164 0
1.47274 -0.720793 0
1.49701 -0.731027 0
1.52191 -0.7413 0
1.54775 -0.751297 0
1.57382 -0.760955 0
1.59893 -0.77059 0
1.62303 -0.780353 0
1.64741 -0.789977 0
1.67305 -0.799192 0
1.69933 -0.808161 0
1.72488 -0.817038 0
1.7492 -0.825536 0
1.77311 -0.833647 0
1.79764 -0.841924 0
1.82294 -0.85047 0
1.84846 -0.858777 0
1.8737 -0.866428 0
1.8985 -0.873575 0
1.92318 -0.880565 0
1.94814 -0.887503 0
1.97346 -0.894235 0
1.99885 -0.900731 0
2.02413 -0.907064 0
2.04933 -0.913203 0
2.07457 -0.918984 0
2.0999 -0.924278 0
2.12526 -0.929103 0
2.15064 -0.933596 0
2.176 -0.937931 0
2.20133 -0.942253 0
2.22664 -0.946626 0
2.25188 -0.951061 0
2.27706 -0.955507 0
2.30213 -0.959876 0
2.32707 -0.964056 0
2.35189 -0.967919 0
2.37661 -0.971343 0
2.40129 -0.97423 0
2.42598 -0.976521 0
2.45072 -0.978205 0
2.47554 -0.979297 0
2.50042 -0.979877 0
0.0329692 0.0361347 0
0.0518955 0.0609194 0
0.0625729 0.0425971 0
0.105405 0.0455139 0
0.131302 0.0420764 0
0.144158 0.045245 0
0.170805 0.0259349 0
0.211433 0.047233 0
0.219657 0.0336821 0
0.248464 0.0470413 0
0.273553 0.0184833 0
0.29726 0.0224868 0
0.318346 0.00824253 0
0.340245 0.000999151 0
0.372275 -0.0300202 0
0.396864 -0.044573 0
0.440237 -0.074217 0
0.449324 -0.078715 0
0.469252 -0.109135 0
0.500013 -0.115079 0
0.532533 -0.167614 0
0.554366 -0.159523 0
0.574524 -0.179413 0
0.604683 -0.205632 0
0.623687 -0.219254 0
0.653569 -0.23821 0
0.678657 -0.258696 0
0.693094 -0.271222 0
0.725881 -0.281656 0
0.747796 -0.318706 0
0.776999 -0.340759 0
0.805827 -0.335433 0
0.821966 -0.348998 0
0.844996 -0.374772 0
0.879392 -0.391567 0
0.904145 -0.398752 0
0.921166 -0.411894 0
0.945476 -0.429664 0
0.975569 -0.445493 0
1.00146 -0.461064 0
1.02248 -0.475478 0
1.04638 -0.487387 0
1.074 -0.499023 0
1.09832 -0.512894 0
1.12169 -0.527011 0
1.14707 -0.539162 0
1.17178 -0.552527 0
1.1974 -0.567178 0
1.22361 -0.579711 0
1.2471 -0.591369 0
1.27037 -0.603512 0
1.29658 -0.615832 0
1.32324 -0.628268 0
1.34783 -0.640318 0
1.37178 -0.651553 0
1.39668 -0.662802 0
1.42212 -0.67434 0
1.4474 -0.685446 0
1.47251 -0.695873 0
1.49746 -0.706286 0
1.52238 -0.716905 0
1.5477 -0.727013 0
1.57333 -0.73618 0
1.59855 -0.745407 0
1.62313 -0.755404 0
1.64777 -0.765411 0
1.67319 -0.774712 0
1.69914 -0.783462 0
1.72459 -0.791911 0
1.74904 -0.800267 0
1.77318 -0.808746 0
1.79785 -0.817325 0
1.82307 -0.825778 0
1.84839 -0.83385 0
1.87355 -0.841432 0
1.89847 -0.848642 0
1.92327 -0.855721 0
1.94821 -0.86271 0
1.97344 -0.869481 0
1.99881 -0.87597 0
2.02412 -0.882219 0
2.04934 -0.888268 0
2.07459 -0.89403 0
2.0999 -0.899359 0
2.12526 -0.904218 0
2.15062 -0.908737 0
2.17597 -0.913099 0
2.2013 -0.917449 0
2.22661 -0.921836 0
2.25188 -0.926252 0
2.27706 -0.930642 0
2.30212 -0.93493 0
2.32706 -0.939022 0
2.35187 -0.942816 0
2.3766 -0.9462 0
2.40129 -0.949078 0
2.42599 -0.951381 0
2.45074 -0.953086 0
2.47557 -0.954196 0
2.50046 -0.954786 0
0.0224426 0.0771264 0
0.0389583 0.086903 0
0.0772226 0.0793489 0
0.0990551 0.0846896 0
0.123776 0.0749598 0
0.144589 0.0674036 0
0.172535 0.0733959 0
0.208252 0.0750587 0
0.225365 0.0538429 0
0.250745 0.066826 0
0.276412 0.0422867 0
0.292482 0.0440238 0
0.333575 0.0142366 0
0.360763 0.0161009 0
0.373404 -0.00357132 0
0.391718 -0.0240748 0
0.429016 -0.0353243 0
0.452456 -0.0543526 0
0.476634 -0.09932 0
0.504974 -0.105725 0
0.523109 -0.120502 0
0.551923 -0.147796 0
0.577501 -0.147191 0
0.600745 -0.17586 0
0.628449 -0.202582 0
0.65561 -0.19998 0
0.681706 -0.227535 0
0.698897 -0.257693 0
0.721297 -0.265 0
0.755126 -0.290785 0
0.779263 -0.304819 0
0.798104 -0.307894 0
0.823395 -0.323335 0
0.847709 -0.346605 0
0.875262 -0.364218 0
0.904308 -0.376745 0
0.924174 -0.391016 0
0.944833 -0.404859 0
0.972409 -0.41574 0
0.99949 -0.435072 0
1.02444 -0.453321 0
1.04865 -0.461908 0
1.07278 -0.473625 0
1.0974 -0.48879 0
1.12195 -0.502025 0
1.1468 -0.514561 0
1.17199 -0.528024 0
1.19783 -0.541967 0
1.22312 -0.555054 0
1.24668 -0.566995 0
1.27106 -0.578818 0
1.29723 -0.591111 0
1.32272 -0.603813 0
1.34714 -0.6156 0
1.37193 -0.626358 0
1.39705 -0.637763 0
1.42201 -0.649854 0
1.44712 -0.660868 0
1.47248 -0.67097 0
1.49768 -0.681579 0
1.52257 -0.692415 0
1.54759 -0.702256 0
1.57301 -0.711287 0
1.59837 -0.720615 0
1.6232 -0.730613 0
1.64795 -0.740699 0
1.67329 -0.75003 0
1.699 -0.7585 0
1.72431 -0.766749 0
1.74891 -0.775197 0
1.77329 -0.783896 0
1.79803 -0.792637 0
1.82315 -0.800995 0
1.84836 -0.808871 0
1.87347 -0.816431 0
1.89843 -0.823733 0
1.9233 -0.830867 0
1.94825 -0.837909 0
1.97343 -0.844727 0
1.99877 -0.851182 0
2.0241 -0.857349 0
2.04936 -0.863338 0
2.07461 -0.869078 0
2.09991 -0.874415 0
2.12525 -0.879302 0
2.1506 -0.883859 0
2.17594 -0.888265 0
2.20127 -0.892646 0
2.2266 -0.897054 0
2.25187 -0.901448 0
2.27706 -0.905774 0
2.30213 -0.909972 0
2.32705 -0.913977 0
2.35186 -0.917708 0
2.37659 -0.921065 0
2.40128 -0.923943 0
2.42599 -0.926265 0
2.45076 -0.927992 0
2.47559 -0.92912 0
2.50049 -0.92972 0
0.0138093 0.104504 0
0.0461954 0.0938041 0
0.0830483 0.0939113 0
0.0922981 0.108191 0
0.128289 0.090067 0
0.148685 0.096937 0
0.172604 0.0964463 0
0.209726 0.100214 0
0.21992 0.0774355 0
0.251608 0.0827776 0
0.282813 0.0552983 0
0.296384 0.0595802 0
0.339963 0.0424697 0
0.352802 0.0240037 0
0.389737 0.0278211 0
0.391216 -0.00145053 0
0.431259 -0.0217172 0
0.451123 -0.0419892 0
0.480513 -0.0509443 0
0.499897 -0.0669793 0
0.525003 -0.0848028 0
0.545677 -0.121452 0
0.587679 -0.132623 0
0.603093 -0.160784 0
0.620374 -0.173557 0
0.655521 -0.189314 0
0.675896 -0.199198 0
0.701489 -0.235475 0
0.734526 -0.240365 0
0.74897 -0.242444 0
0.765945 -0.272389 0
0.803645 -0.2922 0
0.833971 -0.30752 0
0.847195 -0.32018 0
0.869991 -0.333939 0
0.901571 -0.350182 0
0.925227 -0.366656 0
0.946753 -0.381387 0
0.973079 -0.392432 0
0.998249 -0.406842 0
1.0232 -0.426697 0
1.04913 -0.437821 0
1.07233 -0.447614 0
1.09669 -0.464391 0
1.123 -0.479515 0
1.14732 -0.490018 0
1.1716 -0.502096 0
1.19744 -0.517281 0
1.22256 -0.530368 0
1.24679 -0.541876 0
1.27214 -0.554541 0
1.29781 -0.566942 0
1.32204 -0.57868 0
1.34629 -0.590425 0
1.37189 -0.60169 0
1.39739 -0.613139 0
1.42208 -0.625084 0
1.44705 -0.636254 0
1.47251 -0.646424 0
1.49768 -0.65675 0
1.5225 -0.667438 0
1.54757 -0.677463 0
1.57297 -0.686626 0
1.59823 -0.695997 0
1.62317 -0.706023 0
1.64809 -0.715939 0
1.67335 -0.725018 0
1.69882 -0.733408 0
1.72404 -0.741703 0
1.74882 -0.750281 0
1.77342 -0.759162 0
1.79818 -0.76791 0
1.82322 -0.776115 0
1.84837 -0.783907 0
1.87344 -0.791473 0
1.89838 -0.79882 0
1.92329 -0.806042 0
1.94827 -0.813156 0
1.97343 -0.819969 0
1.99874 -0.826372 0
2.02407 -0.832487 0
2.04936 -0.838438 0
2.07462 -0.844149 0
2.09992 -0.849471 0
2.12524 -0.854368 0
2.15058 -0.858962 0
2.17591 -0.86343 0
2.20125 -0.867866 0
2.22659 -0.872286 0
2.25187 -0.876657 0
2.27707 -0.880912 0
2.30213 -0.885015 0
2.32706 -0.888935 0
2.35186 -0.892611 0
2.37658 -0.895948 0
2.40128 -0.898835 0
2.42599 -0.901178 0
2.45077 -0.902927 0
2.47561 -0.904071 0
2.50052 -0.90468 0
0.0201274 0.11659 0
0.0473137 0.125214 0
0.0714034 0.111261 0
0.0831676 0.130769 0
0.120077 0.104363 0
0.147023 0.118149 0
0.170108 0.108596 0
0.187132 0.106521 0
0.220771 0.0936179 0
0.25275 0.100476 0
0.283549 0.0908327 0
0.296741 0.0765191 0
0.324668 0.0776481 0
0.356919 0.0575847 0
0.37154 0.0344331 0
0.405073 0.0239343 0
0.424805 0.00694505 0
0.458589 -0.00475802 0
0.466394 -0.0344522 0
0.496113 -0.0442923 0
0.537243 -0.0850459 0
0.547941 -0.0863411 0
0.577717 -0.0952088 0
0.590661 -0.111572 0
0.629132 -0.135136 0
0.648642 -0.151829 0
0.671087 -0.19043 0
0.698435 -0.189414 0
0.728689 -0.206974 0
0.748015 -0.226533 0
0.771085 -0.253803 0
0.804937 -0.267604 0
0.828172 -0.277099 0
0.846372 -0.29589 0
0.872566 -0.310516 0
0.899487 -0.321136 0
0.924095 -0.342677 0
0.949311 -0.359696 0
0.974606 -0.366625 0
0.99818 -0.382621 0
1.02167 -0.400363 0
1.04672 -0.411062 0
1.07241 -0.423007 0
1.09808 -0.441126 0
1.12333 -0.455734 0
1.14743 -0.465445 0
1.17158 -0.477215 0
1.19677 -0.492156 0
1.22212 -0.505477 0
1.24731 -0.517286 0
1.27267 -0.529755 0
1.29762 -0.542209 0
1.32183 -0.553995 0
1.34625 -0.565301 0
1.37163 -0.576793 0
1.39723 -0.588982 0
1.42234 -0.600833 0
1.44724 -0.611343 0
1.4723 -0.621394 0
1.49741 -0.631931 0
1.52251 -0.642581 0
1.54773 -0.652627 0
1.57302 -0.66207 0
1.59813 -0.671587 0
1.6231 -0.681471 0
1.64815 -0.69107 0
1.67336 -0.699839 0
1.69863 -0.708221 0
1.72383 -0.716781 0
1.74879 -0.725573 0
1.77351 -0.734461 0
1.79828 -0.743081 0
1.82329 -0.751208 0
1.8484 -0.758985 0
1.87342 -0.766523 0
1.89833 -0.773892 0
1.92325 -0.78123 0
1.94826 -0.788428 0
1.97343 -0.795204 0
1.99871 -0.801539 0
2.02404 -0.807629 0
2.04934 -0.813568 0
2.07463 -0.819249 0
2.09992 -0.824537 0
2.12524 -0.829427 0
2.15057 -0.834056 0
2.1759 -0.83858 0
2.20124 -0.843075 0
2.22658 -0.847521 0
2.25187 -0.851867 0
2.27707 -0.856049 0
2.30214 -0.860059 0
2.32706 -0.863899 0
2.35186 -0.867529 0
2.37657 -0.870854 0
2.40127 -0.873753 0
2.42599 -0.87612 0
2.45077 -0.877892 0
2.47562 -0.879052 0
2.50054 -0.87967 0
0.0228549 0.155531 0
0.0469031 0.149193 0
0.0759799 0.154279 0
0.107025 0.159256 0
0.125377 0.138677 0
0.15139 0.157165 0
0.176418 0.142765 0
0.216493 0.147252 0
0.218329 0.135659 0
0.251539 0.139982 0
0.284019 0.134804 0
0.299071 0.116986 0
0.331418 0.096573 0
0.35653 0.0744428 0
0.384373 0.0681937 0
0.413761 0.0440631 0
0.429011 0.0360634 0
0.455468 0.0234102 0
0.473568 -0.0161543 0
0.510526 -0.0307149 0
0.531321 -0.0364951 0
0.550717 -0.0671756 0
0.578683 -0.0770101 0
0.609393 -0.11018 0
0.619461 -0.130741 0
0.658516 -0.141105 0
0.674994 -0.142712 0
0.70037 -0.170198 0
0.728 -0.178267 0
0.753531 -0.215095 0
0.777471 -0.224861 0
0.798785 -0.228276 0
0.820716 -0.253248 0
0.849302 -0.275292 0
0.875694 -0.281625 0
0.898351 -0.29573 0
0.923105 -0.319162 0
0.949662 -0.332593 0
0.974425 -0.342629 0
0.997916 -0.359458 0
1.02155 -0.375452 0
1.04637 -0.385334 0
1.07254 -0.400092 0
1.09847 -0.417501 0
1.12318 -0.429581 0
1.14706 -0.440593 0
1.17165 -0.453919 0
1.19711 -0.467884 0
1.22223 -0.480612 0
1.24712 -0.492048 0
1.27225 -0.504547 0
1.29728 -0.517753 0
1.32207 -0.529598 0
1.34672 -0.540431 0
1.37157 -0.552214 0
1.39687 -0.564977 0
1.42231 -0.576566 0
1.44736 -0.586353 0
1.4721 -0.596161 0
1.49711 -0.607161 0
1.52257 -0.618096 0
1.54799 -0.627924 0
1.57309 -0.637427 0
1.59804 -0.647291 0
1.62304 -0.657018 0
1.6481 -0.666087 0
1.67326 -0.674649 0
1.69851 -0.683155 0
1.72376 -0.692009 0
1.74879 -0.701027 0
1.77354 -0.70976 0
1.79832 -0.718186 0
1.82335 -0.726372 0
1.84845 -0.734151 0
1.87342 -0.741575 0
1.89829 -0.748984 0
1.9232 -0.756467 0
1.94823 -0.763713 0
1.9734 -0.770448 0
1.99868 -0.776729 0
2.02401 -0.782789 0
2.04932 -0.788728 0
2.07462 -0.794408 0
2.09992 -0.799665 0
2.12523 -0.804517 0
2.15056 -0.809152 0
2.17589 -0.813724 0
2.20123 -0.818276 0
2.22657 -0.82276 0
2.25187 -0.827081 0
2.27708 -0.831193 0
2.30216 -0.835117 0
2.32708 -0.838885 0
2.35186 -0.842475 0
2.37657 -0.845794 0
2.40126 -0.848708 0
2.42598 -0.851097 0
2.45076 -0.85289 0
2.47562 -0.854067 0
2.50055 -0.854695 0
0.028791 0.179591 0
0.0497655 0.177162 0
0.0780856 0.166632 0
0.0951459 0.172039 0
0.116564 0.172905 0
0.149906 0.167401 0
0.172755 0.157388 0
0.200112 0.156755 0
0.221349 0.158814 0
0.259615 0.146188 0
0.280895 0.146619 0
0.305455 0.135097 0
0.332228 0.119567 0
0.350255 0.109457 0
0.384644 0.0959335 0
0.395434 0.0789395 0
0.431554 0.0590546 0
0.455633 0.0370722 0
0.480166 0.0267103 0
0.502265 0.00586345 0
0.531381 -0.00835363 0
0.552585 -0.0289892 0
0.581584 -0.0525707 0
0.598968 -0.0654868 0
0.62874 -0.0826219 0
0.65076 -0.0931954 0
0.672579 -0.130394 0
0.70135 -0.143034 0
0.72574 -0.161135 0
0.748288 -0.178556 0
0.774747 -0.194742 0
0.80068 -0.209784 0
0.8256 -0.229942 0
0.849928 -0.246972 0
0.873902 -0.258817 0
0.8988 -0.276135 0
0.923455 -0.292341 0
0.94717 -0.302588 0
0.971954 -0.318159 0
0.997949 -0.338023 0
1.02368 -0.351417 0
1.04829 -0.362369 0
1.07223 -0.376896 0
1.09719 -0.392178 0
1.12232 -0.404371 0
1.14686 -0.415597 0
1.17221 -0.430497 0
1.19789 -0.445453 0
1.22243 -0.456095 0
1.24645 -0.466053 0
1.27131 -0.479489 0
1.29707 -0.494132 0
1.32261 -0.50566 0
1.34723 -0.515588 0
1.37152 -0.527974 0
1.39656 -0.541471 0
1.4222 -0.552367 0
1.44731 -0.561245 0
1.47185 -0.571266 0
1.49693 -0.582858 0
1.52267 -0.593906 0
1.54818 -0.603532 0
1.57314 -0.612962 0
1.59801 -0.622998 0
1.62298 -0.632726 0
1.64798 -0.641355 0
1.67309 -0.649603 0
1.69845 -0.658429 0
1.72382 -0.667648 0
1.74882 -0.676588 0
1.77349 -0.685105 0
1.79829 -0.69349 0
1.8234 -0.701741 0
1.84851 -0.709489 0
1.87342 -0.716794 0
1.89824 -0.724201 0
1.92314 -0.731818 0
1.94818 -0.739135 0
1.97336 -0.745802 0
1.99865 -0.752009 0
2.02399 -0.758074 0
2.04931 -0.76403 0
2.0746 -0.769685 0
2.09991 -0.774891 0
2.12523 -0.779707 0
2.15056 -0.78434 0
2.17589 -0.788944 0
2.20123 -0.793536 0
2.22657 -0.798038 0
2.25189 -0.802331 0
2.27711 -0.806375 0
2.30219 -0.810216 0
2.3271 -0.813915 0
2.35188 -0.817465 0
2.37657 -0.820772 0
2.40125 -0.823694 0
2.42596 -0.826099 0
2.45075 -0.827909 0
2.47561 -0.829103 0
2.50055 -0.829749 0
</DataArray>
</Points>
<PointData>
<DataArray NumberOfComponents='1' type='Int32' Name='Particle Type' format='ascii'>
0
0
0
0
0
0
0
0
0
0
0
0
0
0
0
0
0
0
0
0
0
0
1
1
1
1
1
1
1
1
1
1
1
1
1
1
1
1
1
1
1
1
1
1
1
1
1
1
1
1
1
1
1
1
1
1
1
1
1
1
1
1
1
1
1
1
1
1
1
1
1
1
1
1
1
1
1
1
1
1
1
1
1
1
1
1
1
1
1
1
1
1
1
1
1
1
1
1
1
1
1
1
1
1
1
1
1
1
1
1
1
1
1
1
1
1
1
1
1
1
1
1
1
1
1
1
1
1
1
1
1
1
1
1
1
1
1
1
1
1
1
1
1
1
1
1
1
1
1
1
1
1
1
1
1
1
1
1
1
1
1
1
1
1
1
1
1
1
1
1
1
1
1
1
1
1
1
1
1
1
1
1
1
1
1
1
1
1
1
1
1
1
1
1
1
1
1
1
1
1
1
1
1
1
1
1
1
1
1
1
1
1
1
1
1
1
1
1
1
1
1
1
1
1
1
1
1
1
1
1
1
1
1
1
1
1
1
1
1
1
1
1
1
1
1
1
1
1
1
1
1
1
1
1
1
1
1
1
1
1
1
1
1
1
1
1
1
1
1
1
1
1
1
1
1
1
1
1
1
1
1
1
1
1
1
1
1
1
1
1
1
1
1
1
1
1
1
1
1
1
1
1
1
1
1
1
1
1
1
1
1
1
1
1
1
1
1
1
1
1
1
1
1
1
1
1
1
1
1
1
1
1
1
1
1
1
1
1
1
1
1
1
1
1
1
1
1
1
1
1
1
1
1
1
1
1
1
1
1
1
1
1
1
1
1
1
1
1
1
1
1
1
1
1
1
1
1
1
1
1
1
1
1
1
1
1
1
1
1
1
1
1
1
1
1
1
1
1
1
1
1
1
1
1
1
1
1
1
1
1
1
1
1
1
1
1
1
1
1
1
1
1
1
1
1
1
1
1
1
1
1
1
1
1
1
1
1
1
1
1
1
1
1
1
1
1
1
1
1
1
1
1
1
1
1
1
1
1
1
1
1
1
1
1
1
1
1
1
1
1
1
1
1
1
1
1
1
1
1
1
1
1
1
1
1
1
1
1
1
1
1
1
1
1
1
1
1
1
1
1
1
1
1
1
1
1
1
1
1
1
1
1
1
1
1
1
1
1
1
1
1
1
1
1
1
1
1
1
1
1
1
1
1
1
1
1
1
1
1
1
1
1
1
1
1
1
1
1
1
1
1
1
1
1
1
1
1
1
1
1
1
1
1
1
1
1
1
1
1
1
1
1
1
1
1
1
1
1
1
1
1
1
1
1
1
1
1
1
1
1
1
1
1
1
1
1
1
1
1
1
1
1
1
1
1
1
1
1
1
1
1
1
1
1
1
1
1
1
1
1
1
1
1
1
1
1
1
1
1
1
1
1
1
1
1
1
1
1
1
1
1
1
1
1
1
1
1
1
1
1
1
1
1
1
1
1
1
1
1
1
1
1
1
1
1
1
1
1
1
1
1
1
1
1
1
1
1
1
1
1
1
1
1
1
1
1
1
1
1
1
1
1
1
1
1
1
1
1
1
1
1
1
1
1
1
1
1
1
1
1
1
1
1
1
1
1
1
1
1
1
1
1
1
1
1
1
1
1
1
1
1
1
1
1
1
1
1
1
1
1
1
1
1
1
1
1
1
1
1
1
1
1
1
1
1
1
1
1
1
1
1
1
1
1
1
1
1
1
1
1
1
1
1
1
1
1
1
1
1
1
1
1
1
1
1
1
1
1
1
1
1
1
1
1
1
1
1
1
1
1
1
1
1
1
1
1
1
1
</DataArray>
<DataArray NumberOfComponents='3' type='Float64' Name='Velocity' format='ascii'>
0 0 0
0 0 0
0 0 0
0 0 0
0 0 0
0 0 0
0 0 0
0 0 0
0 0 0
0 0 0
0 0 0
0 0 0
0 0 0
0 0 0
0.345055 -0.231513 0
0.0902158 -0.269841 0
0 0 0
-0.125847 -0.580021 0
-0.416328 -0.400853 0
-0.575268 -0.422092 0
-0.0473254 -0.303774 0
-0.18785 -0.212039 0
0.255492 0.39499 0
-0.110159 -0.41863 0
0.165055 0.108105 0
-0.0109443 -0.304694 0
-0.11401 -0.251227 0
0.0409582 0.260078 0
0.0523045 -0.070343 0
-0.17873 0.141471 0
0.0584252 -0.576207 0
-0.0265051 -0.100463 0
-0.188179 -0.275722 0
0.188429 -0.0957817 0
-0.483347 -0.0138883 0
0.394438 -0.248895 0
0.0592567 0.276544 0
-0.233415 -0.273648 0
0.317016 -0.376691 0
-0.199318 -0.195023 0
0.219178 -0.515271 0
0.154731 0.094768 0
-0.519936 0.201767 0
0.255504 -0.423985 0
0.183717 -0.218188 0
-0.359695 -0.137842 0
0.220262 -0.459905 0
0.20534 -0.279897 0
-0.263314 -0.027381 0
-0.0164935 -0.231968 0
0.187659 -0.282463 0
-0.0261615 -0.184037 0
-0.121822 -0.203003 0
-0.00832718 -0.225108 0
0.100221 -0.253254 0
0.0118531 -0.294503 0
-0.13323 -0.240446 0
-0.00274399 -0.192225 0
0.126432 -0.254843 0
-0.0420823 -0.304531 0
-0.120943 -0.260119 0
0.0465178 -0.238146 0
0.0872384 -0.289675 0
-0.0479598 -0.310515 0
-0.089813 -0.270965 0
-0.0108704 -0.272958 0
0.0460091 -0.327289 0
0.031883 -0.350138 0
-0.0257054 -0.330792 0
-0.068763 -0.316011 0
-0.0419765 -0.317449 0
0.0263429 -0.328518 0
0.0477689 -0.350536 0
-0.00324974 -0.364966 0
-0.0579709 -0.353994 0
-0.0502753 -0.340846 0
0.00255035 -0.355314 0
0.0396127 -0.386957 0
0.03342 -0.401486 0
0.000973652 -0.386212 0
-0.0265522 -0.36882 0
-0.02572 -0.381136 0
-0.000268817 -0.409834 0
0.017956 -0.424652 0
0.0095881 -0.42543 0
-0.00840313 -0.427874 0
-0.0134919 -0.433165 0
-0.00693153 -0.436248 0
-0.00144565 -0.44036 0
-0.00158777 -0.450411 0
-0.00371834 -0.466179 0
-0.0047846 -0.482784 0
-0.00488824 -0.495873 0
-0.00479487 -0.503422 0
-0.00456131 -0.505872 0
-0.00423192 -0.504789 0
-0.00425108 -0.50117 0
-0.00462913 -0.496928 0
-0.00474203 -0.493591 0
-0.0039353 -0.492178 0
-0.00225396 -0.493183 0
-0.000575232 -0.49639 0
-2.07518e-05 -0.500829 0
-0.00121297 -0.505128 0
-0.00394539 -0.508126 0
-0.00734881 -0.509385 0
-0.0103737 -0.509293 0
-0.0122963 -0.50876 0
-0.368645 0.567841 0
-0.213223 -0.530606 0
0.0980646 -0.504448 0
0.295505 -0.43431 0
0.0633609 -0.279918 0
-0.288868 -0.552285 0
0.141653 -0.286071 0
0.414541 -0.763681 0
-0.319001 0.121384 0
0.57934 -0.110523 0
-0.60328 -0.324169 0
0.217845 -0.159797 0
0.0942386 -0.254884 0
4.3795e-06 -0.16372 0
-0.138937 -0.354835 0
0.27501 0.0349456 0
-0.58797 0.390541 0
-0.195629 0.306936 0
0.609888 -0.403251 0
-0.303734 -0.0617427 0
-0.642537 -0.29485 0
0.438991 -0.116027 0
-0.249115 -0.0724281 0
0.59432 -0.336495 0
-0.271112 0.325165 0
-0.289147 -0.724005 0
0.996023 0.0449507 0
-0.337217 0.0675429 0
-0.95702 -0.0288442 0
0.193099 0.119257 0
0.669972 -0.272822 0
-0.665558 0.258982 0
0.119 -0.185984 0
0.287596 -0.462145 0
-0.0209599 -0.514187 0
0.122978 -0.213906 0
-0.0833289 0.17846 0
-0.245669 -0.142412 0
0.0978574 -0.380614 0
0.198151 -0.191878 0
-0.00822816 -0.204634 0
-0.0792482 -0.248815 0
-0.00843509 -0.220799 0
0.0232918 -0.211495 0
-0.0113542 -0.236305 0
-0.00656822 -0.227077 0
0.0195632 -0.217272 0
-0.0256361 -0.244373 0
-0.0388873 -0.254908 0
0.0354787 -0.241095 0
0.0374021 -0.255374 0
-0.0553703 -0.27548 0
-0.0586153 -0.26231 0
0.0271557 -0.254696 0
0.0382662 -0.280933 0
-0.0225601 -0.295472 0
-0.0437613 -0.289528 0
-0.0123903 -0.298596 0
0.0146333 -0.316644 0
0.00902636 -0.317727 0
-0.0194672 -0.321901 0
-0.0404205 -0.333643 0
-0.0261992 -0.339674 0
0.0108436 -0.337421 0
0.0239009 -0.335843 0
-0.00532787 -0.343516 0
-0.0407863 -0.355193 0
-0.038492 -0.361147 0
-0.000788325 -0.36942 0
0.0302884 -0.384397 0
0.0256853 -0.387201 0
-0.00094501 -0.376505 0
-0.0188452 -0.375089 0
-0.0165743 -0.391272 0
-0.00245749 -0.411327 0
0.00905768 -0.421394 0
0.00728406 -0.423009 0
-0.00385718 -0.426115 0
-0.0106055 -0.433052 0
-0.00800042 -0.438859 0
-0.00305305 -0.443782 0
-0.00179928 -0.452416 0
-0.00328693 -0.466505 0
-0.00451273 -0.482317 0
-0.00467176 -0.495316 0
-0.00448588 -0.502972 0
-0.00445688 -0.505029 0
-0.00454727 -0.50371 0
-0.00477478 -0.500417 0
-0.00496063 -0.49684 0
-0.00465701 -0.494302 0
-0.00357591 -0.493466 0
-0.00197856 -0.49448 0
-0.000627391 -0.497073 0
-0.00036731 -0.500562 0
-0.00162451 -0.504011 0
-0.00418067 -0.506582 0
-0.00728739 -0.507904 0
-0.0100294 -0.508195 0
-0.0117862 -0.508048 0
0.771991 -0.797652 0
-0.372025 0.307376 0
-0.227123 0.221195 0
0.48897 0.4197 0
-0.280365 0.579867 0
-0.511129 -0.193036 0
0.034395 0.766088 0
-0.0576881 -0.0813058 0
-0.160209 0.346696 0
0.381427 0.264964 0
-0.371948 -0.235678 0
0.249422 -0.019694 0
0.188621 0.0906046 0
-0.34438 -0.439522 0
0.116162 -0.0411434 0
-0.428709 0.646339 0
-0.00939261 -0.668704 0
0.394595 -0.361158 0
-0.122177 -0.336818 0
-0.453826 0.0054415 0
0.030142 0.155118 0
0.437403 -0.424997 0
-0.443478 0.381261 0
0.0834262 0.273221 0
0.220273 -0.0543477 0
-0.261781 0.282474 0
0.0633601 -0.125327 0
0.178896 -0.404777 0
0.0912061 0.0493712 0
-0.0424438 0.537244 0
-0.268316 -0.570106 0
0.17504 -0.677329 0
0.291313 0.0475947 0
-0.245748 0.101136 0
-0.22485 -0.346149 0
0.211768 -0.408946 0
0.190996 -0.142749 0
-0.118152 -0.0746826 0
-0.156612 -0.102179 0
0.066033 -0.177867 0
0.123745 -0.251041 0
-0.0582829 -0.295725 0
-0.0635475 -0.254952 0
0.0573557 -0.200867 0
0.014418 -0.234021 0
-0.01432 -0.249059 0
-0.0111024 -0.17486 0
-0.054218 -0.203368 0
0.00268764 -0.275259 0
0.0721471 -0.275812 0
-0.00144502 -0.25854 0
-0.0763829 -0.249028 0
-0.0315257 -0.251121 0
0.0264949 -0.278488 0
0.0149634 -0.29461 0
-0.0134046 -0.284526 0
-0.0163269 -0.285113 0
-0.0121598 -0.304669 0
-0.00981491 -0.314828 0
-0.00478404 -0.308589 0
-0.00830472 -0.312374 0
-0.0210168 -0.342043 0
-0.0203607 -0.360397 0
-0.000968238 -0.339948 0
0.00995375 -0.321216 0
-0.00579652 -0.33508 0
-0.0307681 -0.357921 0
-0.0314104 -0.373243 0
-0.00151954 -0.381302 0
0.0243563 -0.37953 0
0.0189806 -0.373672 0
-0.00223586 -0.373335 0
-0.0133724 -0.381703 0
-0.0113251 -0.396493 0
-0.00359729 -0.410822 0
0.00432715 -0.418645 0
0.00563702 -0.420814 0
-0.00149589 -0.425121 0
-0.00857338 -0.43271 0
-0.00847171 -0.440852 0
-0.00426651 -0.447616 0
-0.00212552 -0.454909 0
-0.00295784 -0.46625 0
-0.00411277 -0.481047 0
-0.00427825 -0.494481 0
-0.00413627 -0.502018 0
-0.00433899 -0.503883 0
-0.00488926 -0.502251 0
-0.0053941 -0.499574 0
-0.00544357 -0.497039 0
-0.00472674 -0.495474 0
-0.00330015 -0.495069 0
-0.0016474 -0.495778 0
-0.000494851 -0.497504 0
-0.000488929 -0.499984 0
-0.00187023 -0.50269 0
-0.00436281 -0.504991 0
-0.00728373 -0.506468 0
-0.00982684 -0.507123 0
-0.0114629 -0.507288 0
-0.0780941 0.35173 0
-0.573095 0.204115 0
-0.144428 -0.117426 0
0.871676 -0.189683 0
0.191137 -0.0669179 0
-0.183716 -0.49929 0
0.297573 0.292539 0
0.183466 0.223108 0
-0.544424 -0.500871 0
0.0846135 -0.27971 0
0.171146 0.454663 0
-0.359009 0.410819 0
-0.00877408 0.126141 0
0.992337 -0.0143187 0
-0.378875 0.885275 0
0.20218 -0.489071 0
-0.264288 -0.184574 0
0.221238 -0.097534 0
-0.181799 0.18576 0
0.437912 0.0192124 0
0.155687 0.583484 0
-0.310699 -0.371152 0
0.111901 -0.324739 0
-0.126516 0.381762 0
-0.0529819 -0.618222 0
-0.0466571 -0.630613 0
0.144299 0.583147 0
0.251639 -0.201064 0
-0.189103 -0.140284 0
-0.2399 -0.0699708 0
0.249221 -0.655214 0
0.17146 -0.455465 0
-0.0303474 0.0358738 0
-0.0412604 0.095503 0
-0.181677 -0.13444 0
0.0332103 -0.251357 0
0.235141 -0.221097 0
0.0313762 -0.310679 0
-0.122446 -0.165782 0
-0.0625952 0.0497924 0
-0.00379617 -0.256783 0
0.033481 -0.375284 0
0.0208762 -0.202054 0
0.013332 -0.207954 0
0.00811148 -0.248294 0
-0.0144092 -0.22206 0
-0.0334308 -0.197933 0
-0.0345114 -0.209684 0
0.0208228 -0.248559 0
0.0409822 -0.274889 0
-0.023607 -0.268913 0
-0.0455074 -0.244252 0
-0.00280376 -0.251335 0
0.00935146 -0.29663 0
-0.00573095 -0.303607 0
-0.00589428 -0.267195 0
-0.00523868 -0.272503 0
-0.0157417 -0.314344 0
-0.0186076 -0.31708 0
-0.007707 -0.298201 0
-0.00104271 -0.316161 0
-0.0108665 -0.353251 0
-0.019888 -0.359233 0
-0.00893119 -0.337229 0
0.00388349 -0.320922 0
-0.00649215 -0.331675 0
-0.025517 -0.363026 0
-0.0239839 -0.383501 0
-0.00153073 -0.382554 0
0.0166681 -0.373529 0
0.0132993 -0.366452 0
-0.00150807 -0.371783 0
-0.00967826 -0.387665 0
-0.00853946 -0.400321 0
-0.00349162 -0.408784 0
0.00222403 -0.4159 0
0.00409855 -0.419649 0
-0.000635923 -0.423545 0
-0.00694735 -0.432807 0
-0.0082977 -0.443713 0
-0.00526939 -0.450766 0
-0.00274221 -0.45676 0
-0.0027201 -0.466729 0
-0.00357157 -0.480494 0
-0.0038332 -0.493182 0
-0.00386379 -0.5003 0
-0.00430955 -0.502277 0
-0.00525172 -0.500506 0
-0.00599466 -0.498662 0
-0.00593569 -0.497505 0
-0.00486436 -0.497055 0
-0.00310416 -0.496939 0
-0.00132776 -0.497061 0
-0.000272805 -0.497709 0
-0.000461223 -0.499139 0
-0.00198482 -0.501193 0
-0.00448907 -0.503345 0
-0.00731421 -0.505054 0
-0.00973351 -0.506081 0
-0.0112818 -0.506538 0
-0.20246 0.611159 0
0.455025 -0.71876 0
0.447601 0.508286 0
-0.702048 -0.154355 0
0.255259 -0.499959 0
-0.428153 0.313364 0
0.795945 -0.361032 0
-0.150744 0.330096 0
-0.485767 -0.429141 0
0.481933 0.43437 0
-0.102957 -0.544536 0
0.515389 -0.262549 0
-0.40826 -0.0961344 0
-0.37383 -0.858481 0
0.254875 0.23295 0
-0.0260508 -0.561098 0
-0.202592 0.355311 0
0.122512 0.47056 0
0.0886108 0.0620952 0
-0.0748128 -0.234214 0
-0.258263 0.412318 0
-0.157086 -0.0806502 0
0.0538682 0.371014 0
0.393848 -0.342878 0
-0.201335 -0.205557 0
-0.235772 -0.3858 0
0.182655 -0.125361 0
-0.288395 0.176329 0
0.0520176 -1.00381 0
0.488322 -0.148227 0
-0.13333 0.255481 0
-0.494008 -0.0742867 0
0.172223 -0.199197 0
0.353914 -0.29781 0
-0.122193 -0.169995 0
-0.127937 -0.104611 0
0.124486 -0.171077 0
0.0310369 -0.253374 0
-0.0498558 -0.295521 0
-0.00503719 -0.0624262 0
-0.0485792 -0.126924 0
0.0102406 -0.369459 0
0.0630469 -0.219673 0
-0.0332644 -0.102318 0
-0.0244127 -0.254232 0
0.0290812 -0.312915 0
-0.01552 -0.196784 0
-0.032701 -0.175888 0
0.00912625 -0.266403 0
-0.00017149 -0.259209 0
-0.0344742 -0.242239 0
-0.00107339 -0.271351 0
0.0320288 -0.276525 0
-0.00692035 -0.281275 0
-0.0341244 -0.292324 0
-0.00729233 -0.273177 0
0.00399932 -0.270619 0
-0.0166075 -0.304336 0
-0.0198596 -0.32282 0
-0.00276265 -0.311537 0
-0.000365201 -0.315611 0
-0.0136632 -0.345137 0
-0.017512 -0.35631 0
-0.00808985 -0.335826 0
-0.00172457 -0.323452 0
-0.00821094 -0.341161 0
-0.0191026 -0.369634 0
-0.0178461 -0.383519 0
-0.00351841 -0.379287 0
0.00860902 -0.367223 0
0.00857513 -0.362372 0
1.42146e-05 -0.375139 0
-0.00702964 -0.392166 0
-0.00697718 -0.401129 0
-0.00233001 -0.407803 0
0.00190725 -0.413716 0
0.00259087 -0.416794 0
-0.000839109 -0.422783 0
-0.00570561 -0.434562 0
-0.00771622 -0.446123 0
-0.00596551 -0.452841 0
-0.00350797 -0.458427 0
-0.00273323 -0.46784 0
-0.00310513 -0.48061 0
-0.0034012 -0.491919 0
-0.00366215 -0.498057 0
-0.00442197 -0.499321 0
-0.00554462 -0.498922 0
-0.00646278 -0.49778 0
-0.00633467 -0.498199 0
-0.00503205 -0.498902 0
-0.00301645 -0.498931 0
-0.00108773 -0.498276 0
-3.40609e-05 -0.497737 0
-0.000333326 -0.498125 0
-0.00198004 -0.499611 0
-0.0045423 -0.501704 0
-0.00735271 -0.503695 0
-0.00972623 -0.505096 0
-0.0112347 -0.505829 0
-0.188433 0.0628059 0
0.131987 -0.326179 0
-0.504276 0.585542 0
-0.0121952 -0.2429 0
-0.0205639 -0.307298 0
-0.398483 0.640855 0
0.569589 0.0726735 0
-0.869142 -0.456338 0
0.29983 0.579137 0
-0.306554 0.245948 0
0.154015 -0.372376 0
0.00290712 0.346415 0
0.216733 0.13269 0
0.0148258 -0.00150614 0
0.0356353 0.302436 0
0.118019 0.179039 0
-0.00735312 -0.801225 0
-0.193578 0.603553 0
0.183824 -1.03546 0
-0.167607 0.499729 0