<?xml version='1.0' encoding='UTF-8'?>
<VTKFile byte_order='LittleEndian' version='0.1' type = 'UnstructuredGrid'>
<UnstructuredGrid>
<FieldData>
<DataArray type='Float64' Name='Time' NumberOfComponents='1' NumberOfTuples='1' format='ascii'>
1.641
</DataArray>
</FieldData>
<Piece NumberOfCells='808' NumberOfPoints='808'>
<Points>
<DataArray NumberOfComponents='3' type='Float64' Name='position' format='ascii'>
0 0 0
0 0.025 0
0 0.05 0
0 0.075 0
0 0.1 0
0 0.125 0
0 0.15 0
0 0.175 0
0.025 0 0
0.05 0 0
0.075 0 0
0.1 0 0
0.125 0 0
0.15 0 0
0.175 0 0
0.2 0 0
0.225 0 0
0.25 0 0
0.275 0 0
0.3 0 0
0.325 0 0
0.348858 -0.00214985 0
0.379124 -0.0268735 0
0.404691 -0.0408456 0
0.430201 -0.0528139 0
0.454806 -0.0629841 0
0.479571 -0.07289 0
0.504495 -0.0822847 0
0.529301 -0.0910628 0
0.554033 -0.0995646 0
0.578591 -0.108164 0
0.603706 -0.116364 0
0.628522 -0.124333 0
0.653051 -0.132352 0
0.678018 -0.140123 0
0.702922 -0.147493 0
0.727838 -0.154418 0
0.752874 -0.161191 0
0.777724 -0.16789 0
0.8026 -0.174272 0
0.827567 -0.18045 0
0.852378 -0.18654 0
0.877196 -0.192285 0
0.902231 -0.197571 0
0.927284 -0.20255 0
0.952204 -0.207294 0
0.977109 -0.211859 0
1.00206 -0.2164 0
1.02698 -0.220968 0
1.05181 -0.225415 0
1.07663 -0.229626 0
1.10146 -0.233668 0
1.12631 -0.237631 0
1.15118 -0.241476 0
1.17612 -0.2451 0
1.20114 -0.248464 0
1.22623 -0.251598 0
1.25133 -0.254518 0
1.27642 -0.257188 0
1.30148 -0.259546 0
1.32653 -0.261561 0
1.35155 -0.263249 0
1.37654 -0.264651 0
1.40149 -0.265807 0
1.42641 -0.266743 0
1.45131 -0.267476 0
1.47619 -0.268023 0
1.50106 -0.268407 0
1.52591 -0.268657 0
1.55077 -0.268804 0
1.57563 -0.268878 0
1.6005 -0.268905 0
1.62538 -0.268904 0
1.65028 -0.268889 0
1.6752 -0.268869 0
1.70014 -0.26885 0
1.72509 -0.268834 0
1.75006 -0.268821 0
1.77504 -0.268812 0
1.80002 -0.268806 0
1.82501 -0.268802 0
1.85001 -0.268799 0
1.875 -0.268798 0
1.9 -0.268797 0
1.925 -0.268797 0
1.95 -0.268796 0
1.975 -0.268796 0
2 -0.268796 0
2.025 -0.268796 0
2.05 -0.268796 0
2.075 -0.268796 0
2.1 -0.268796 0
2.125 -0.268796 0
2.15 -0.268796 0
2.175 -0.268796 0
2.2 -0.268796 0
2.225 -0.268796 0
2.25 -0.268796 0
2.275 -0.268796 0
2.3 -0.268796 0
2.325 -0.268796 0
2.35 -0.268796 0
2.375 -0.268796 0
2.4 -0.268796 0
2.425 -0.268796 0
2.45 -0.268796 0
2.475 -0.268796 0
2.5 -0.268796 0
0.0249444 0.024526 0
0.0498651 0.0242282 0
0.0747118 0.0241181 0
0.0996394 0.0236167 0
0.12456 0.0234278 0
0.149524 0.0226974 0
0.174706 0.0222879 0
0.199558 0.0218623 0
0.224703 0.0211605 0
0.249941 0.0208128 0
0.274968 0.0193295 0
0.300188 0.0174483 0
0.326271 0.0138032 0
0.354263 0.00626411 0
0.380072 -0.00607451 0
0.404921 -0.0179393 0
0.430018 -0.0290121 0
0.454873 -0.0391002 0
0.479714 -0.0488097 0
0.504528 -0.0579122 0
0.529332 -0.0665182 0
0.554095 -0.0749989 0
0.578739 -0.0833926 0
0.603543 -0.0915118 0
0.628331 -0.099539 0
0.653111 -0.107563 0
0.678048 -0.115305 0
0.702936 -0.12263 0
0.727834 -0.129659 0
0.752811 -0.136486 0
0.777733 -0.143127 0
0.802648 -0.14949 0
0.827572 -0.155631 0
0.85241 -0.161633 0
0.877251 -0.167338 0
0.902217 -0.17264 0
0.927228 -0.177628 0
0.952186 -0.182387 0
0.977119 -0.186986 0
1.00206 -0.19152 0
1.02696 -0.19602 0
1.05181 -0.200409 0
1.07663 -0.204617 0
1.10146 -0.208682 0
1.1263 -0.212656 0
1.15118 -0.216508 0
1.17613 -0.22015 0
1.20115 -0.223539 0
1.22623 -0.226682 0
1.25133 -0.229589 0
1.27642 -0.232229 0
1.30149 -0.234556 0
1.32653 -0.236549 0
1.35155 -0.238223 0
1.37653 -0.239616 0
1.40148 -0.240764 0
1.42641 -0.241694 0
1.45131 -0.242421 0
1.47619 -0.242965 0
1.50106 -0.243346 0
1.52592 -0.243596 0
1.55077 -0.243746 0
1.57563 -0.243825 0
1.6005 -0.243858 0
1.62539 -0.243865 0
1.65029 -0.243858 0
1.6752 -0.243846 0
1.70014 -0.243833 0
1.72509 -0.243822 0
1.75006 -0.243813 0
1.77504 -0.243807 0
1.80002 -0.243803 0
1.82501 -0.2438 0
1.85001 -0.243798 0
1.875 -0.243797 0
1.9 -0.243797 0
1.925 -0.243796 0
1.95 -0.243796 0
1.975 -0.243796 0
2 -0.243796 0
2.025 -0.243796 0
2.05 -0.243796 0
2.075 -0.243796 0
2.1 -0.243796 0
2.125 -0.243796 0
2.15 -0.243796 0
2.175 -0.243796 0
2.2 -0.243796 0
2.225 -0.243796 0
2.25 -0.243796 0
2.275 -0.243796 0
2.3 -0.243796 0
2.325 -0.243796 0
2.35 -0.243796 0
2.375 -0.243796 0
2.4 -0.243796 0
2.425 -0.243796 0
2.45 -0.243796 0
2.475 -0.243796 0
2.5 -0.243796 0
0.024769 0.0491628 0
0.0496888 0.0485084 0
0.0746302 0.0480925 0
0.0995945 0.047345 0
0.124538 0.0469709 0
0.149422 0.0464118 0
0.174507 0.0458266 0
0.199482 0.0449596 0
0.224641 0.0435362 0
0.249917 0.0423624 0
0.275382 0.0400004 0
0.301251 0.0373195 0
0.327346 0.0327611 0
0.354123 0.0250141 0
0.380182 0.0150306 0
0.40517 0.00485455 0
0.430149 -0.00533945 0
0.455077 -0.0148613 0
0.479797 -0.0240017 0
0.504454 -0.033032 0
0.529241 -0.0417814 0
0.554033 -0.0502145 0
0.578742 -0.0586236 0
0.603545 -0.0667114 0
0.62837 -0.0746085 0
0.653179 -0.0825834 0
0.678033 -0.0903469 0
0.702893 -0.0976814 0
0.727808 -0.104758 0
0.752797 -0.111658 0
0.777757 -0.118268 0
0.802677 -0.124619 0
0.827588 -0.130749 0
0.852456 -0.136647 0
0.87731 -0.14228 0
0.90223 -0.147615 0
0.927205 -0.152656 0
0.952172 -0.157454 0
0.977115 -0.162075 0
1.00205 -0.166585 0
1.02695 -0.171015 0
1.05182 -0.175349 0
1.07664 -0.179554 0
1.10145 -0.183644 0
1.12629 -0.187644 0
1.15117 -0.191517 0
1.17612 -0.195187 0
1.20115 -0.198605 0
1.22623 -0.201762 0
1.25133 -0.204657 0
1.27642 -0.207268 0
1.30149 -0.209563 0
1.32654 -0.211531 0
1.35155 -0.213191 0
1.37653 -0.214578 0
1.40148 -0.215724 0
1.4264 -0.216651 0
1.4513 -0.217375 0
1.47619 -0.217914 0
1.50106 -0.218293 0
1.52592 -0.218542 0
1.55078 -0.218693 0
1.57564 -0.218776 0
1.60051 -0.218815 0
1.62539 -0.218829 0
1.65029 -0.218829 0
1.67521 -0.218824 0
1.70014 -0.218817 0
1.7251 -0.218811 0
1.75006 -0.218806 0
1.77504 -0.218802 0
1.80002 -0.2188 0
1.82501 -0.218798 0
1.85001 -0.218797 0
1.875 -0.218797 0
1.9 -0.218796 0
1.925 -0.218796 0
1.95 -0.218796 0
1.975 -0.218796 0
2 -0.218796 0
2.025 -0.218796 0
2.05 -0.218796 0
2.075 -0.218796 0
2.1 -0.218796 0
2.125 -0.218796 0
2.15 -0.218796 0
2.175 -0.218796 0
2.2 -0.218796 0
2.225 -0.218796 0
2.25 -0.218796 0
2.275 -0.218796 0
2.3 -0.218796 0
2.325 -0.218796 0
2.35 -0.218796 0
2.375 -0.218796 0
2.4 -0.218796 0
2.425 -0.218796 0
2.45 -0.218796 0
2.475 -0.218796 0
2.5 -0.218796 0
0.0246724 0.0739697 0
0.0495714 0.0731052 0
0.0745326 0.0723927 0
0.0994766 0.071519 0
0.124371 0.0709284 0
0.149362 0.0699332 0
0.174502 0.0688783 0
0.199673 0.067811 0
0.224954 0.066117 0
0.250288 0.0643022 0
0.27588 0.0612188 0
0.301879 0.0579751 0
0.328028 0.0529193 0
0.354184 0.0456694 0
0.38007 0.0370948 0
0.405221 0.027992 0
0.430164 0.018553 0
0.455088 0.00950279 0
0.479812 0.000521505 0
0.504507 -0.00843752 0
0.529294 -0.0168421 0
0.55407 -0.0253486 0
0.578759 -0.0338393 0
0.603564 -0.0419498 0
0.628432 -0.0497228 0
0.653219 -0.0575914 0
0.677989 -0.0654019 0
0.702829 -0.0727945 0
0.72779 -0.0798415 0
0.752815 -0.0867072 0
0.777774 -0.0933539 0
0.802663 -0.0997517 0
0.827575 -0.105863 0
0.852497 -0.111679 0
0.877387 -0.117244 0
0.902283 -0.122585 0
0.927217 -0.12768 0
0.952163 -0.132516 0
0.977096 -0.137145 0
1.00202 -0.141622 0
1.02694 -0.145989 0
1.05182 -0.150273 0
1.07664 -0.154471 0
1.10145 -0.158587 0
1.12628 -0.162622 0
1.15116 -0.166529 0
1.17611 -0.170235 0
1.20114 -0.173684 0
1.22622 -0.176856 0
1.25132 -0.179742 0
1.27642 -0.182322 0
1.3015 -0.184581 0
1.32655 -0.186521 0
1.35156 -0.188164 0
1.37653 -0.189545 0
1.40148 -0.19069 0
1.4264 -0.191617 0
1.45131 -0.192338 0
1.47619 -0.192872 0
1.50106 -0.193246 0
1.52592 -0.193491 0
1.55078 -0.193641 0
1.57564 -0.193727 0
1.60051 -0.193772 0
1.62539 -0.193793 0
1.65029 -0.193801 0
1.67521 -0.193803 0
1.70015 -0.193802 0
1.7251 -0.193801 0
1.75006 -0.193799 0
1.77504 -0.193798 0
1.80002 -0.193797 0
1.82501 -0.193797 0
1.85001 -0.193796 0
1.875 -0.193796 0
1.9 -0.193796 0
1.925 -0.193796 0
1.95 -0.193796 0
1.975 -0.193796 0
2 -0.193796 0
2.025 -0.193796 0
2.05 -0.193796 0
2.075 -0.193796 0
2.1 -0.193796 0
2.125 -0.193796 0
2.15 -0.193796 0
2.175 -0.193796 0
2.2 -0.193796 0
2.225 -0.193796 0
2.25 -0.193796 0
2.275 -0.193796 0
2.3 -0.193796 0
2.325 -0.193796 0
2.35 -0.193796 0
2.375 -0.193796 0
2.4 -0.193796 0
2.425 -0.193796 0
2.45 -0.193796 0
2.475 -0.193796 0
2.5 -0.193796 0
0.0247415 0.0987282 0
0.0495897 0.0976561 0
0.0744732 0.0967464 0
0.0994389 0.0956961 0
0.124474 0.0946126 0
0.149536 0.0932923 0
0.174632 0.0920038 0
0.199856 0.0905669 0
0.225174 0.0885782 0
0.250565 0.0866064 0
0.276254 0.0832793 0
0.302072 0.0793691 0
0.328046 0.0743509 0
0.354066 0.0673517 0
0.379693 0.0598038 0
0.404929 0.0512956 0
0.429986 0.0425816 0
0.455002 0.0337128 0
0.479768 0.025014 0
0.50446 0.0163271 0
0.529305 0.00777428 0
0.554173 -0.000576511 0
0.578847 -0.00883515 0
0.603558 -0.017028 0
0.628394 -0.0249185 0
0.653207 -0.0327319 0
0.677976 -0.0405496 0
0.702808 -0.0479268 0
0.72779 -0.0548939 0
0.752834 -0.0617117 0
0.777771 -0.0684027 0
0.802621 -0.0748658 0
0.827539 -0.0809898 0
0.852526 -0.0867606 0
0.877475 -0.0922638 0
0.902369 -0.0975913 0
0.927257 -0.102714 0
0.952156 -0.10757 0
0.977066 -0.112198 0
1.00199 -0.116647 0
1.02692 -0.120965 0
1.05181 -0.125204 0
1.07664 -0.12939 0
1.10144 -0.133531 0
1.12627 -0.137606 0
1.15115 -0.141554 0
1.1761 -0.145298 0
1.20113 -0.148778 0
1.2262 -0.151966 0
1.25131 -0.154843 0
1.27642 -0.157395 0
1.30151 -0.159616 0
1.32656 -0.161522 0
1.35157 -0.163146 0
1.37654 -0.164519 0
1.40149 -0.165664 0
1.42641 -0.166591 0
1.45131 -0.167309 0
1.47619 -0.167838 0
1.50107 -0.168204 0
1.52593 -0.168444 0
1.55078 -0.168592 0
1.57564 -0.16868 0
1.60051 -0.168729 0
1.62539 -0.168757 0
1.65029 -0.168772 0
1.67521 -0.168781 0
1.70015 -0.168787 0
1.7251 -0.16879 0
1.75006 -0.168792 0
1.77504 -0.168794 0
1.80002 -0.168795 0
1.82501 -0.168795 0
1.85001 -0.168796 0
1.875 -0.168796 0
1.9 -0.168796 0
1.925 -0.168796 0
1.95 -0.168796 0
1.975 -0.168796 0
2 -0.168796 0
2.025 -0.168796 0
2.05 -0.168796 0
2.075 -0.168796 0
2.1 -0.168796 0
2.125 -0.168796 0
2.15 -0.168796 0
2.175 -0.168796 0
2.2 -0.168796 0
2.225 -0.168796 0
2.25 -0.168796 0
2.275 -0.168796 0
2.3 -0.168796 0
2.325 -0.168796 0
2.35 -0.168796 0
2.375 -0.168796 0
2.4 -0.168796 0
2.425 -0.168796 0
2.45 -0.168796 0
2.475 -0.168796 0
2.5 -0.168796 0
0.0248304 0.123331 0
0.0496636 0.12198 0
0.0745276 0.120967 0
0.0995693 0.119675 0
0.124587 0.118609 0
0.149668 0.1173 0
0.174796 0.115891 0
0.200059 0.114155 0
0.225364 0.11176 0
0.250743 0.109408 0
0.27647 0.106013 0
0.302299 0.101692 0
0.327911 0.0965065 0
0.353801 0.0902627 0
0.379413 0.0830023 0
0.404664 0.0751987 0
0.429855 0.0667119 0
0.454898 0.058266 0
0.479686 0.0496165 0
0.504323 0.0409197 0
0.529205 0.0326701 0
0.554084 0.0243662 0
0.578783 0.0160608 0
0.603559 0.00787243 0
0.628405 -0.000142171 0
0.653211 -0.00798102 0
0.677969 -0.0156582 0
0.702788 -0.022978 0
0.727786 -0.029939 0
0.75285 -0.0367427 0
0.777771 -0.0434544 0
0.802591 -0.0499534 0
0.827508 -0.0561035 0
0.852543 -0.0618748 0
0.877552 -0.0673422 0
0.902458 -0.0726337 0
0.927302 -0.077746 0
0.95215 -0.0825958 0
0.977034 -0.0872319 0
1.00196 -0.0916674 0
1.0269 -0.0959476 0
1.0518 -0.100147 0
1.07663 -0.104319 0
1.10144 -0.108481 0
1.12626 -0.112597 0
1.15114 -0.116588 0
1.1761 -0.12037 0
1.20111 -0.123879 0
1.22619 -0.127083 0
1.2513 -0.129956 0
1.27641 -0.132482 0
1.30151 -0.134666 0
1.32657 -0.136537 0
1.35158 -0.138138 0
1.37655 -0.139503 0
1.40149 -0.140646 0
1.42641 -0.141573 0
1.45131 -0.142289 0
1.4762 -0.14281 0
1.50107 -0.143168 0
1.52593 -0.143401 0
1.55079 -0.143546 0
1.57565 -0.143634 0
1.60051 -0.143687 0
1.62539 -0.143721 0
1.65029 -0.143744 0
1.67521 -0.14376 0
1.70014 -0.143771 0
1.7251 -0.14378 0
1.75006 -0.143785 0
1.77504 -0.143789 0
1.80002 -0.143792 0
1.82501 -0.143794 0
1.85001 -0.143795 0
1.875 -0.143795 0
1.9 -0.143796 0
1.925 -0.143796 0
1.95 -0.143796 0
1.975 -0.143796 0
2 -0.143796 0
2.025 -0.143796 0
2.05 -0.143796 0
2.075 -0.143796 0
2.1 -0.143796 0
2.125 -0.143796 0
2.15 -0.143796 0
2.175 -0.143796 0
2.2 -0.143796 0
2.225 -0.143796 0
2.25 -0.143796 0
2.275 -0.143796 0
2.3 -0.143796 0
2.325 -0.143796 0
2.35 -0.143796 0
2.375 -0.143796 0
2.4 -0.143796 0
2.425 -0.143796 0
2.45 -0.143796 0
2.475 -0.143796 0
2.5 -0.143796 0
0.0248508 0.148204 0
0.0497439 0.146772 0
0.074724 0.145487 0
0.0997702 0.143984 0
0.124696 0.14272 0
0.149793 0.141012 0
0.17493 0.139521 0
0.200191 0.137823 0
0.225561 0.135341 0
0.250922 0.132643 0
0.276509 0.129168 0
0.302405 0.124855 0
0.327859 0.119509 0
0.353571 0.113603 0
0.379275 0.106462 0
0.404401 0.0990348 0
0.429568 0.0907882 0
0.454721 0.0827359 0
0.479502 0.0740965 0
0.504119 0.0658783 0
0.529245 0.0577257 0
0.554129 0.0490745 0
0.578656 0.0406984 0
0.603464 0.0326001 0
0.628448 0.0246757 0
0.653241 0.01693 0
0.677887 0.00930669 0
0.702692 0.00193784 0
0.727778 -0.00507258 0
0.752899 -0.0118572 0
0.777801 -0.0185339 0
0.80258 -0.0250422 0
0.827487 -0.0312285 0
0.852557 -0.0370143 0
0.877611 -0.0424743 0
0.902523 -0.0477186 0
0.927332 -0.0527627 0
0.952138 -0.0576177 0
0.977003 -0.0622762 0
1.00193 -0.0667098 0
1.02689 -0.0709595 0
1.05179 -0.0751187 0
1.07663 -0.0792749 0
1.10143 -0.0834564 0
1.12625 -0.0876124 0
1.15113 -0.0916432 0
1.17608 -0.0954554 0
1.2011 -0.09899 0
1.22617 -0.102209 0
1.25128 -0.105081 0
1.27641 -0.107586 0
1.30152 -0.109734 0
1.32658 -0.11157 0
1.35159 -0.113146 0
1.37656 -0.114499 0
1.4015 -0.11564 0
1.42642 -0.116565 0
1.45132 -0.117276 0
1.4762 -0.117789 0
1.50107 -0.118138 0
1.52593 -0.118362 0
1.55079 -0.118502 0
1.57565 -0.11859 0
1.60051 -0.118647 0
1.62539 -0.118686 0
1.65029 -0.118716 0
1.67521 -0.118739 0
1.70014 -0.118756 0
1.72509 -0.118769 0
1.75006 -0.118778 0
1.77504 -0.118785 0
1.80002 -0.118789 0
1.82501 -0.118792 0
1.85001 -0.118794 0
1.875 -0.118795 0
1.9 -0.118795 0
1.925 -0.118796 0
1.95 -0.118796 0
1.975 -0.118796 0
2 -0.118796 0
2.025 -0.118796 0
2.05 -0.118796 0
2.075 -0.118796 0
2.1 -0.118796 0
2.125 -0.118796 0
2.15 -0.118796 0
2.175 -0.118796 0
2.2 -0.118796 0
2.225 -0.118796 0
2.25 -0.118796 0
2.275 -0.118796 0
2.3 -0.118796 0
2.325 -0.118796 0
2.35 -0.118796 0
2.375 -0.118796 0
2.4 -0.118796 0
2.425 -0.118796 0
2.45 -0.118796 0
2.475 -0.118796 0
2.5 -0.118796 0
0.0247644 0.173333 0
0.0497355 0.171977 0
0.0746475 0.170711 0
0.0997541 0.169389 0
0.12464 0.167927 0
0.149834 0.1666 0
0.175163 0.164667 0
0.200068 0.162754 0
0.225873 0.160205 0
0.251052 0.157194 0
0.276606 0.153721 0
0.302629 0.14916 0
0.32785 0.144004 0
0.353625 0.137797 0
0.379481 0.13083 0
0.404228 0.12322 0
0.429336 0.115444 0
0.454791 0.107152 0
0.479378 0.0989488 0
0.504103 0.0904733 0
0.529345 0.081859 0
0.55423 0.0735901 0
0.578597 0.0653534 0
0.603294 0.0572179 0
0.628457 0.049356 0
0.653273 0.0417596 0
0.677725 0.0342408 0
0.702528 0.0267347 0
0.727784 0.019547 0
0.752996 0.0128074 0
0.777856 0.00626938 0
0.802556 -0.000201376 0
0.827448 -0.00644104 0
0.852571 -0.0122761 0
0.877668 -0.0177083 0
0.90257 -0.0228632 0
0.927341 -0.0278371 0
0.952117 -0.0326951 0
0.976972 -0.0373772 0
1.00192 -0.0418143 0
1.02689 -0.0460343 0
1.0518 -0.05015 0
1.07663 -0.0542843 0
1.10141 -0.0584822 0
1.12623 -0.0626755 0
1.15112 -0.0667389 0
1.17607 -0.070572 0
1.20108 -0.0741231 0
1.22614 -0.077356 0
1.25126 -0.0802286 0
1.2764 -0.0827132 0
1.30153 -0.0848257 0
1.3266 -0.0866233 0
1.35161 -0.0881709 0
1.37658 -0.0895079 0
1.40151 -0.0906411 0
1.42642 -0.091561 0
1.45132 -0.0922645 0
1.47621 -0.092768 0
1.50108 -0.0931058 0
1.52594 -0.0933215 0
1.55079 -0.0934564 0
1.57565 -0.0935431 0
1.60051 -0.0936032 0
1.62539 -0.0936487 0
1.65029 -0.0936852 0
1.6752 -0.093715 0
1.70014 -0.0937387 0
1.72509 -0.093757 0
1.75006 -0.0937704 0
1.77504 -0.0937798 0
1.80002 -0.0937861 0
1.82501 -0.0937902 0
1.85001 -0.0937927 0
1.875 -0.0937942 0
1.9 -0.093795 0
1.925 -0.0937955 0
1.95 -0.0937957 0
1.975 -0.0937959 0
2 -0.0937959 0
2.025 -0.093796 0
2.05 -0.093796 0
2.075 -0.093796 0
2.1 -0.093796 0
2.125 -0.093796 0
2.15 -0.093796 0
2.175 -0.093796 0
2.2 -0.093796 0
2.225 -0.093796 0
2.25 -0.093796 0
2.275 -0.093796 0
2.3 -0.093796 0
2.325 -0.093796 0
2.35 -0.093796 0
2.375 -0.093796 0
2.4 -0.093796 0
2.425 -0.093796 0
2.45 -0.093796 0
2.475 -0.093796 0
2.5 -0.093796 0
</DataArray>
</Points>
<PointData>
<DataArray NumberOfComponents='1' type='Int32' Name='Particle Type' format='ascii'>
0
0
0
0
0
0
0
0
0
0
0
0
0
0
0
0
0
0
0
0
0
0
1
1
1
1
1
1
1
1
1
1
1
1
1
1
1
1
1
1
1
1
1
1
1
1
1
1
1
1
1
1
1
1
1
1
1
1
1
1
1
1
1
1
1
1
1
1
1
1
1
1
1
1
1
1
1
1
1
1
1
1
1
1
1
1
1
1
1
1
1
1
1
1
1
1
1
1
1
1
1
1
1
1
1
1
1
1
1
1
1
1
1
1
1
1
1
1
1
1
1
1
1
1
1
1
1
1
1
1
1
1
1
1
1
1
1
1
1
1
1
1
1
1
1
1
1
1
1
1
1
1
1
1
1
1
1
1
1
1
1
1
1
1
1
1
1
1
1
1
1
1
1
1
1
1
1
1
1
1
1
1
1
1
1
1
1
1
1
1
1
1
1
1
1
1
1
1
1
1
1
1
1
1
1
1
1
1
1
1
1
1
1
1
1
1
1
1
1
1
1
1
1
1
1
1
1
1
1
1
1
1
1
1
1
1
1
1
1
1
1
1
1
1
1
1
1
1
1
1
1
1
1
1
1
1
1
1
1
1
1
1
1
1
1
1
1
1
1
1
1
1
1
1
1
1
1
1
1
1
1
1
1
1
1
1
1
1
1
1
1
1
1
1
1
1
1
1
1
1
1
1
1
1
1
1
1
1
1
1
1
1
1
1
1
1
1
1
1
1
1
1
1
1
1
1
1
1
1
1
1
1
1
1
1
1
1
1
1
1
1
1
1
1
1
1
1
1
1
1
1
1
1
1
1
1
1
1
1
1
1
1
1
1
1
1
1
1
1
1
1
1
1
1
1
1
1
1
1
1
1
1
1
1
1
1
1
1
1
1
1
1
1
1
1
1
1
1
1
1
1
1
1
1
1
1
1
1
1
1
1
1
1
1
1
1
1
1
1
1
1
1
1
1
1
1
1
1
1
1
1
1
1
1
1
1
1
1
1
1
1
1
1
1
1
1
1
1
1
1
1
1
1
1
1
1
1
1
1
1
1
1
1
1
1
1
1
1
1
1
1
1
1
1
1
1
1
1
1
1
1
1
1
1
1
1
1
1
1
1
1
1
1
1
1
1
1
1
1
1
1
1
1
1
1
1
1
1
1
1
1
1
1
1
1
1
1
1
1
1
1
1
1
1
1
1
1
1
1
1
1
1
1
1
1
1
1
1
1
1
1
1
1
1
1
1
1
1
1
1
1
1
1
1
1
1
1
1
1
1
1
1
1
1
1
1
1
1
1
1
1
1
1
1
1
1
1
1
1
1
1
1
1
1
1
1
1
1
1
1
1
1
1
1
1
1
1
1
1
1
1
1
1
1
1
1
1
1
1
1
1
1
1
1
1
1
1
1
1
1
1
1
1
1
1
1
1
1
1
1
1
1
1
1
1
1
1
1
1
1
1
1
1
1
1
1
1
1
1
1
1
1
1
1
1
1
1
1
1
1
1
1
1
1
1
1
1
1
1
1
1
1
1
1
1
1
1
1
1
1
1
1
1
1
1
1
1
1
1
1
1
1
1
1
1
1
1
1
1
1
1
1
1
1
1
1
1
1
1
1
1
1
1
1
1
1
1
1
1
1
1
1
1
1
1
1
1
1
1
1
1
1
1
1
1
1
1
1
1
1
1
1
1
1
1
1
1
1
1
1
1
1
1
1
1
1
1
1
1
1
1
1
1
1
1
1
1
1
1
1
1
1
1
1
1
1
1
1
1
1
1
1
1
1
1
1
1
1
1
1
1
1
1
1
1
1
1
1
1
1
1
1
1
1
1
1
1
1
</DataArray>
<DataArray NumberOfComponents='3' type='Float64' Name='Velocity' format='ascii'>
0 0 0
0 0 0
0 0 0
0 0 0
0 0 0
0 0 0
0 0 0
0 0 0
0 0 0
0 0 0
0 0 0
0 0 0
0 0 0
0 0 0
0 0 0
0 0 0
0 0 0
0 0 0
0 0 0
0 0 0
0 0 0
-0.0212317 -0.0447675 0
-0.00381724 -0.0333404 0
-0.0112857 -0.0270639 0
0.00344659 -0.0481292 0
0.0145793 -0.0492363 0
0.00209221 -0.0462342 0
0.00373052 -0.0549566 0
0.00380172 -0.0663208 0
0.0104274 -0.0633307 0
0.0013742 -0.0655776 0
-0.00564134 -0.078748 0
0.0111153 -0.0793211 0
0.00522569 -0.0825753 0
-0.00199108 -0.0934481 0
0.00141593 -0.107677 0
-0.00249919 -0.117558 0
-8.0997e-05 -0.118574 0
0.00380411 -0.123848 0
0.000226161 -0.132136 0
0.0015881 -0.135081 0
0.00471721 -0.14126 0
-0.000303945 -0.155217 0
-0.00451547 -0.167874 0
-0.00119869 -0.176257 0
0.0019907 -0.18276 0
0.00117382 -0.185283 0
0.00098532 -0.184344 0
0.00315198 -0.185591 0
0.00478931 -0.192159 0
0.00480681 -0.199453 0
0.00447447 -0.203562 0
0.00401211 -0.206569 0
0.00248026 -0.211964 0
-8.629e-05 -0.219615 0
-0.00243427 -0.227099 0
-0.00357603 -0.233529 0
-0.00357322 -0.240301 0
-0.00301422 -0.248905 0
-0.00228308 -0.259219 0
-0.00140616 -0.269883 0
-0.000316964 -0.279635 0
0.000924615 -0.288057 0
0.0021448 -0.295395 0
0.00318322 -0.302028 0
0.00397423 -0.308111 0
0.00453333 -0.313559 0
0.00489746 -0.318197 0
0.00508139 -0.321897 0
0.00507419 -0.324649 0
0.00486232 -0.326542 0
0.00445454 -0.327729 0
0.00389178 -0.328382 0
0.00323942 -0.328666 0
0.00256992 -0.328719 0
0.00194559 -0.328646 0
0.00140809 -0.328521 0
0.000976172 -0.328389 0
0.000649588 -0.328273 0
0.000415758 -0.328182 0
0.000256429 -0.328116 0
0.000152683 -0.328071 0
8.79083e-05 -0.328041 0
4.90168e-05 -0.328023 0
2.65061e-05 -0.328013 0
1.39185e-05 -0.328007 0
7.1056e-06 -0.328004 0
3.53063e-06 -0.328002 0
1.70919e-06 -0.328001 0
8.06922e-07 -0.328 0
3.71841e-07 -0.328 0
1.6739e-07 -0.328 0
7.3669e-08 -0.328 0
3.17202e-08 -0.328 0
1.33718e-08 -0.328 0
5.52211e-09 -0.328 0
2.23544e-09 -0.328 0
8.87477e-10 -0.328 0
3.45784e-10 -0.328 0
1.32277e-10 -0.328 0
4.98312e-11 -0.328 0
1.84047e-11 -0.328 0
6.75575e-12 -0.328 0
2.43101e-12 -0.328 0
8.20494e-13 -0.328 0
2.14407e-13 -0.328 0
2.81449e-14 -0.328 0
3.25909e-15 -0.328 0
-0.000849795 0.000687133 0
0.000128198 0.0023958 0
-0.000450164 0.00625143 0
-0.00236899 0.00211402 0
0.00141121 -0.00181777 0
-0.00494576 0.0110313 0
-0.00139373 -0.0102608 0
0.000902183 0.00127114 0
-0.00864692 -0.0155029 0
0.00610919 -0.00691902 0
0.0030305 0.00636242 0
-0.00789233 -0.00841046 0
0.00436023 0.00227807 0
-0.0175088 -0.0471068 0
-0.00289787 -0.0208299 0
-0.000751567 -0.0216495 0
0.00146699 -0.0332726 0
0.00279309 -0.0384761 0
0.00154135 -0.0466911 0
0.00285013 -0.0642125 0
0.00359509 -0.0714735 0
0.00832193 -0.0711513 0
0.00802387 -0.0755615 0
0.00409345 -0.0790246 0
0.00469713 -0.077882 0
4.22508e-05 -0.0820964 0
-0.00153868 -0.0942528 0
0.0010566 -0.105375 0
-0.000619936 -0.112655 0
-0.000601114 -0.118456 0
0.000953496 -0.125428 0
0.000545769 -0.133529 0
0.00226617 -0.138015 0
0.00404735 -0.144079 0
0.00119708 -0.155807 0
-0.00209042 -0.167579 0
-0.00141062 -0.175891 0
0.00046672 -0.18173 0
0.000918381 -0.184557 0
0.00140269 -0.185855 0
0.00298604 -0.188071 0
0.00448321 -0.193277 0
0.00499886 -0.199049 0
0.00478675 -0.202912 0
0.00395931 -0.206199 0
0.0022272 -0.211443 0
-0.000179642 -0.218755 0
-0.00234426 -0.226408 0
-0.00350491 -0.233571 0
-0.00362005 -0.241083 0
-0.0030946 -0.24998 0
-0.00227766 -0.260156 0
-0.00129722 -0.270533 0
-0.000183225 -0.280063 0
0.000998401 -0.28837 0
0.00213173 -0.295655 0
0.00311138 -0.302248 0
0.00388817 -0.308283 0
0.00446205 -0.313674 0
0.00484671 -0.318242 0
0.00504351 -0.321864 0
0.00504091 -0.324533 0
0.0048315 -0.326351 0
0.00442971 -0.327483 0
0.00387796 -0.328108 0
0.00323941 -0.328393 0
0.00258285 -0.328471 0
0.00196773 -0.328437 0
0.00143459 -0.328357 0
0.00100265 -0.328267 0
0.000673037 -0.328187 0
0.000434708 -0.328124 0
0.000270642 -0.328079 0
0.00016269 -0.328048 0
9.45738e-05 -0.328028 0
5.32424e-05 -0.328016 0
2.90674e-05 -0.328009 0
1.54084e-05 -0.328005 0
7.93995e-06 -0.328002 0
3.98156e-06 -0.328001 0
1.94492e-06 -0.328001 0
9.26334e-07 -0.328 0
4.30562e-07 -0.328 0
1.95461e-07 -0.328 0
8.67317e-08 -0.328 0
3.76447e-08 -0.328 0
1.59931e-08 -0.328 0
6.65503e-09 -0.328 0
2.71387e-09 -0.328 0
1.0853e-09 -0.328 0
4.25762e-10 -0.328 0
1.64062e-10 -0.328 0
6.2046e-11 -0.328 0
2.31217e-11 -0.328 0
8.45445e-12 -0.328 0
3.03638e-12 -0.328 0
1.08089e-12 -0.328 0
3.4937e-13 -0.328 0
5.327e-14 -0.328 0
5.73998e-15 -0.328 0
-0.00194563 -0.00708148 0
-0.00296479 -0.0100662 0
-0.00192285 -0.0189348 0
-0.00543474 -0.0180322 0
-0.00354452 -0.0371188 0
-0.00355428 -0.0282381 0
-0.000848728 -0.0424405 0
0.00196972 -0.0235666 0
-0.00449265 -0.039148 0
0.0041939 -0.0306804 0
0.00119314 -0.0224647 0
-0.0035939 -0.0432097 0
0.00178699 -0.0228144 0
-0.00167059 -0.0413184 0
0.000575244 -0.0448878 0
0.00289099 -0.0320935 0
0.00145684 -0.041754 0
0.00562802 -0.0537306 0
0.0110275 -0.058119 0
0.00792479 -0.0540526 0
0.00394088 -0.0658681 0
0.00556321 -0.0688792 0
0.0050364 -0.0737224 0
0.00224805 -0.0829673 0
0.00251407 -0.0818696 0
0.00170489 -0.0819888 0
0.00128969 -0.0930608 0
0.00104252 -0.103545 0
-0.00147486 -0.108927 0
-0.00217114 -0.116993 0
-0.000326532 -0.126886 0
0.000853418 -0.133985 0
0.00216365 -0.140861 0
0.00350852 -0.148258 0
0.00230501 -0.156752 0
-0.000279153 -0.16594 0
-0.00103346 -0.174367 0
-6.83339e-05 -0.180573 0
0.000805395 -0.184614 0
0.00147942 -0.187766 0
0.00270868 -0.190544 0
0.00424768 -0.194401 0
0.00524072 -0.198588 0
0.00520619 -0.20191 0
0.00409936 -0.205275 0
0.00209338 -0.210441 0
-0.000323879 -0.217607 0
-0.00240506 -0.225555 0
-0.00358455 -0.233505 0
-0.00378183 -0.24183 0
-0.00326023 -0.251123 0
-0.00233345 -0.261215 0
-0.00121767 -0.271255 0
-3.94245e-05 -0.280445 0
0.00111251 -0.288541 0
0.00216697 -0.295751 0
0.00307745 -0.302349 0
0.00382475 -0.30841 0
0.00440431 -0.313803 0
0.00480946 -0.318331 0
0.00502443 -0.321877 0
0.00503149 -0.324453 0
0.00482554 -0.326184 0
0.00442577 -0.327252 0
0.00387765 -0.327847 0
0.00324456 -0.328134 0
0.00259381 -0.328237 0
0.00198313 -0.328243 0
0.0014521 -0.328206 0
0.00101993 -0.328157 0
0.000688345 -0.328111 0
0.000447144 -0.328074 0
0.000280036 -0.328047 0
0.000169353 -0.328028 0
9.90444e-05 -0.328016 0
5.6096e-05 -0.328009 0
3.0808e-05 -0.328005 0
1.64269e-05 -0.328003 0
8.51328e-06 -0.328001 0
4.2929e-06 -0.328001 0
2.10838e-06 -0.328 0
1.00947e-06 -0.328 0
4.71593e-07 -0.328 0
2.15142e-07 -0.328 0
9.59183e-08 -0.328 0
4.18224e-08 -0.328 0
1.78463e-08 -0.328 0
7.45765e-09 -0.328 0
3.05375e-09 -0.328 0
1.22612e-09 -0.328 0
4.82762e-10 -0.328 0
1.86661e-10 -0.328 0
7.09233e-11 -0.328 0
2.64148e-11 -0.328 0
9.68855e-12 -0.328 0
3.52888e-12 -0.328 0
1.25836e-12 -0.328 0
4.31318e-13 -0.328 0
7.37534e-14 -0.328 0
6.05069e-15 -0.328 0
0.000120944 -0.000677345 0
-0.00206866 -0.00193634 0
-0.0020327 -0.00295167 0
-0.000452728 0.00616641 0
0.000860566 -0.00213155 0
0.00101225 0.00996162 0
4.98994e-05 -0.00798965 0
-0.001137 0.00876256 0
-0.0026428 0.00222724 0
0.000536869 0.00187879 0
0.000624784 -0.00524246 0
-0.00120915 -0.0319374 0
0.000514577 -0.0152372 0
-0.00349354 -0.020792 0
0.000394601 -0.0398831 0
0.00481984 -0.0358127 0
0.00135425 -0.0436429 0
0.00425096 -0.052304 0
0.00822348 -0.048092 0
0.00597339 -0.0616858 0
0.00386087 -0.0664745 0
0.00642861 -0.0616752 0
0.00519118 -0.0686311 0
0.0010644 -0.0844096 0
0.00251556 -0.0871253 0
0.00504828 -0.082893 0
0.00408988 -0.0899594 0
0.000434615 -0.102735 0
-0.00343249 -0.110495 0
-0.00319854 -0.116937 0
0.000205856 -0.124987 0
0.0015182 -0.133599 0
0.000991099 -0.143157 0
0.00168296 -0.151474 0
0.00223438 -0.158252 0
0.00113866 -0.164862 0
0.00020493 -0.172782 0
0.000546672 -0.179922 0
0.00111265 -0.185263 0
0.00142714 -0.189768 0
0.00231146 -0.192795 0
0.00396563 -0.195491 0
0.00538836 -0.198179 0
0.00554941 -0.200696 0
0.00427075 -0.203891 0
0.00204807 -0.209032 0
-0.000411918 -0.216262 0
-0.00246516 -0.224633 0
-0.00369889 -0.233395 0
-0.00400111 -0.242573 0
-0.00350472 -0.252358 0
-0.0024786 -0.262441 0
-0.00121324 -0.272125 0
6.67712e-05 -0.280884 0
0.00123134 -0.288675 0
0.00223431 -0.295772 0
0.00308209 -0.302399 0
0.00379242 -0.308538 0
0.004367 -0.313979 0
0.00478592 -0.318489 0
0.00501777 -0.321955 0
0.00503619 -0.32442 0
0.00483494 -0.326043 0
0.00443591 -0.327032 0
0.00388744 -0.327589 0
0.00325435 -0.327874 0
0.00260406 -0.328003 0
0.00199378 -0.328049 0
0.0014626 -0.328056 0
0.00102958 -0.328047 0
0.000696603 -0.328035 0
0.000453734 -0.328024 0
0.00028497 -0.328015 0
0.000172839 -0.328009 0
0.00010138 -0.328005 0
5.75872e-05 -0.328003 0
3.17186e-05 -0.328002 0
1.69603e-05 -0.328001 0
8.81407e-06 -0.328 0
4.45651e-06 -0.328 0
2.19442e-06 -0.328 0
1.0533e-06 -0.328 0
4.93253e-07 -0.328 0
2.25545e-07 -0.328 0
1.00779e-07 -0.328 0
4.4036e-08 -0.328 0
1.88293e-08 -0.328 0
7.8838e-09 -0.328 0
3.23452e-09 -0.328 0
1.30094e-09 -0.328 0
5.13228e-10 -0.328 0
1.98695e-10 -0.328 0
7.54756e-11 -0.328 0
2.82374e-11 -0.328 0
1.03741e-11 -0.328 0
3.7665e-12 -0.328 0
1.38047e-12 -0.328 0
4.58513e-13 -0.328 0
8.32357e-14 -0.328 0
7.99691e-15 -0.328 0
-0.00197845 0.00966635 0
-0.00617371 0.0148213 0
-0.00378757 0.0179723 0
0.000689268 0.0340602 0
0.000157005 0.0286591 0
-0.00202974 0.0425624 0
-0.00252718 0.0338484 0
-0.000939062 0.0383011 0
-0.00185335 0.0236913 0
-0.00307874 0.0231193 0
0.00385804 0.0196473 0
0.00513552 -0.00458117 0
0.00661172 -0.00214813 0
0.00155459 -0.0175393 0
0.00637187 -0.0283379 0
0.00672661 -0.0346798 0
1.68055e-05 -0.0384704 0
0.00243914 -0.0480047 0
0.00644524 -0.0527185 0
0.00426265 -0.0564782 0
-0.000682464 -0.0629577 0
0.00443526 -0.0706655 0
0.00858364 -0.0716927 0
0.00502652 -0.0772078 0
0.0031677 -0.0848953 0
0.00454865 -0.0827355 0
0.00415241 -0.089545 0
0.000140903 -0.105534 0
-0.00407726 -0.114059 0
-0.00289572 -0.117414 0
0.00159876 -0.122574 0
0.0020964 -0.131871 0
-0.000737157 -0.143593 0
-0.00107664 -0.153614 0
0.00101842 -0.159805 0
0.00218107 -0.164728 0
0.00215155 -0.172173 0
0.00203807 -0.179989 0
0.00174312 -0.186151 0
0.00134758 -0.191445 0
0.00190655 -0.194654 0
0.00367284 -0.196507 0
0.00539351 -0.197859 0
0.00568851 -0.199406 0
0.00433367 -0.202267 0
0.00204253 -0.20744 0
-0.000377914 -0.214878 0
-0.00241097 -0.223718 0
-0.00375599 -0.233253 0
-0.00422961 -0.243279 0
-0.00381497 -0.253625 0
-0.00272185 -0.263778 0
-0.00130346 -0.273122 0
0.000112603 -0.2814 0
0.00133523 -0.288821 0
0.00232325 -0.29577 0
0.00312531 -0.302433 0
0.00379748 -0.308681 0
0.00435662 -0.314199 0
0.00477888 -0.318705 0
0.00502199 -0.322088 0
0.00505074 -0.324429 0
0.00485494 -0.325929 0
0.00445636 -0.326827 0
0.00390506 -0.327337 0
0.00326781 -0.327616 0
0.00261343 -0.327768 0
0.00199982 -0.327854 0
0.00146625 -0.327905 0
0.00103166 -0.327938 0
0.000697726 -0.32796 0
0.000454313 -0.327974 0
0.000285256 -0.327984 0
0.000172974 -0.327991 0
0.000101441 -0.327995 0
5.76137e-05 -0.327997 0
3.17295e-05 -0.327998 0
1.69647e-05 -0.327999 0
8.81569e-06 -0.328 0
4.45707e-06 -0.328 0
2.19459e-06 -0.328 0
1.05334e-06 -0.328 0
4.9326e-07 -0.328 0
2.25543e-07 -0.328 0
1.00777e-07 -0.328 0
4.4034e-08 -0.328 0
1.88285e-08 -0.328 0
7.88343e-09 -0.328 0
3.23411e-09 -0.328 0
1.3009e-09 -0.328 0
5.13169e-10 -0.328 0
1.98679e-10 -0.328 0
7.55266e-11 -0.328 0
2.82082e-11 -0.328 0
1.03567e-11 -0.328 0
3.75946e-12 -0.328 0
1.3792e-12 -0.328 0
4.56683e-13 -0.328 0
8.4021e-14 -0.328 0
8.95811e-15 -0.328 0
-0.00119146 -0.00421153 0
-0.00374946 -0.0124007 0
0.000490878 -0.0203973 0
0.00227907 -0.0194791 0
-0.00759601 -0.0341634 0
-0.0102859 -0.0132696 0
-0.00495243 -0.0212414 0
-0.000178075 -0.0177177 0
0.00985054 -0.0319092 0
-0.00413235 -0.0346093 0
-0.00387589 -0.0166174 0
0.00444142 -0.0309413 0
0.00479842 -0.0290806 0
0.00252186 -0.0437462 0
0.00341761 -0.0389158 0
0.00503668 -0.0450643 0
0.000356365 -0.0389734 0
0.00546176 -0.0519506 0
0.0109563 -0.044455 0
0.00774518 -0.0603122 0
8.96145e-05 -0.0702207 0
0.00406215 -0.0685213 0
0.00539268 -0.0696321 0
0.00250531 -0.0723603 0
0.00253566 -0.0787657 0
0.00404991 -0.0850312 0
0.00423829 -0.0947327 0
0.000282528 -0.107515 0
-0.00436396 -0.115179 0