<?xml version='1.0' encoding='UTF-8'?>
<VTKFile byte_order='LittleEndian' version='0.1' type = 'UnstructuredGrid'>
<UnstructuredGrid>
<FieldData>
<DataArray type='Float64' Name='Time' NumberOfComponents='1' NumberOfTuples='1' format='ascii'>
3.641
</DataArray>
</FieldData>
<Piece NumberOfCells='808' NumberOfPoints='808'>
<Points>
<DataArray NumberOfComponents='3' type='Float64' Name='position' format='ascii'>
-0.00174074 -0.000572589 0
0 0.025 0
-0.0016003 0.04926 0
-0.0033081 0.0795779 0
-3.41419e-05 0.0999976 0
-0.000447707 0.125096 0
-0.000355393 0.149963 0
-0.000909861 0.175262 0
0.0251734 -0.000146405 0
0.049873 -0.000197948 0
0.075127 -0.000210748 0
0.0999569 -0.000316513 0
0.12533 -0.00151374 0
0.153243 -0.00380156 0
0.176836 -0.00192282 0
0.20073 -0.0134036 0
0.223188 -0.00136612 0
0.248272 -0.00718153 0
0.261035 -0.0160359 0
0.293468 -0.0181055 0
0.311515 -0.030911 0
0.332176 -0.0119785 0
0.372406 -0.0971085 0
0.390883 -0.119858 0
0.409687 -0.153401 0
0.42631 -0.168937 0
0.459871 -0.220169 0
0.484641 -0.195659 0
0.496571 -0.210457 0
0.53596 -0.253313 0
0.569576 -0.271955 0
0.581619 -0.293241 0
0.627197 -0.318212 0
0.646649 -0.33885 0
0.677455 -0.360249 0
0.699593 -0.372751 0
0.737838 -0.406494 0
0.748014 -0.414989 0
0.754905 -0.454953 0
0.799728 -0.452933 0
0.839563 -0.486936 0
0.859671 -0.485691 0
0.889358 -0.510008 0
0.896001 -0.548873 0
0.933613 -0.562459 0
0.946659 -0.566624 0
0.973992 -0.588853 0
1.01732 -0.605861 0
1.01079 -0.620365 0
1.04088 -0.63484 0
1.0791 -0.65915 0
1.11302 -0.691521 0
1.11935 -0.679694 0
1.14711 -0.690483 0
1.17447 -0.714017 0
1.19695 -0.73631 0
1.22795 -0.749219 0
1.25488 -0.758844 0
1.2714 -0.772839 0
1.29173 -0.786332 0
1.32373 -0.800421 0
1.3493 -0.814648 0
1.36382 -0.824188 0
1.39059 -0.838006 0
1.42723 -0.858512 0
1.44899 -0.872139 0
1.46333 -0.878596 0
1.49126 -0.890998 0
1.52446 -0.908939 0
1.5479 -0.922513 0
1.5673 -0.930913 0
1.59164 -0.941694 0
1.61965 -0.956613 0
1.64682 -0.970808 0
1.67112 -0.982255 0
1.6935 -0.99283 0
1.71777 -1.00383 0
1.74565 -1.01531 0
1.77333 -1.02734 0
1.79711 -1.03908 0
1.81899 -1.04915 0
1.8435 -1.05826 0
1.87151 -1.06854 0
1.89938 -1.08013 0
1.92416 -1.09092 0
1.9471 -1.09951 0
1.97067 -1.10688 0
1.99559 -1.11515 0
2.02161 -1.12488 0
2.04812 -1.1346 0
2.0738 -1.14287 0
2.09784 -1.14974 0
2.12131 -1.15617 0
2.14575 -1.16263 0
2.17118 -1.16896 0
2.19664 -1.17486 0
2.2216 -1.18001 0
2.24641 -1.18427 0
2.27152 -1.1878 0
2.29695 -1.19079 0
2.32243 -1.19334 0
2.3477 -1.19562 0
2.37276 -1.19756 0
2.39772 -1.19908 0
2.42265 -1.2002 0
2.44757 -1.201 0
2.47249 -1.20155 0
2.49741 -1.20187 0
0.00742131 0.00538327 0
0.0498371 0.0358871 0
0.0612344 0.0318184 0
0.0946249 0.023605 0
0.123084 0.0176324 0
0.146796 0.0136635 0
0.184831 0.0150829 0
0.201845 0.0251922 0
0.233523 -0.000958276 0
0.227946 0.0078948 0
0.25827 -0.00231479 0
0.313232 -0.00782277 0
0.32206 -0.0283672 0
0.343553 -0.0342916 0
0.349779 -0.0910558 0
0.391463 -0.0848461 0
0.397042 -0.12824 0
0.434022 -0.125485 0
0.461428 -0.168746 0
0.49015 -0.176756 0
0.506866 -0.227218 0
0.535442 -0.230371 0
0.549591 -0.232837 0
0.592442 -0.261142 0
0.628588 -0.273484 0
0.63854 -0.314335 0
0.674927 -0.333529 0
0.709821 -0.356267 0
0.736806 -0.383532 0
0.764892 -0.397879 0
0.783956 -0.42183 0
0.791196 -0.43286 0
0.835121 -0.472192 0
0.869447 -0.483345 0
0.87431 -0.5104 0
0.895904 -0.528295 0
0.919387 -0.527001 0
0.939522 -0.513311 0
0.961345 -0.569166 0
1.00104 -0.57985 0
1.0355 -0.618383 0
1.0508 -0.612278 0
1.07264 -0.621717 0
1.0997 -0.637609 0
1.12354 -0.663155 0
1.15874 -0.679468 0
1.17421 -0.689779 0
1.19656 -0.709804 0
1.22731 -0.724853 0
1.25225 -0.734258 0
1.27166 -0.745589 0
1.29285 -0.761117 0
1.32188 -0.776361 0
1.34894 -0.789753 0
1.36822 -0.802217 0
1.3922 -0.815801 0
1.42158 -0.829688 0
1.44581 -0.842763 0
1.4675 -0.855773 0
1.49405 -0.86885 0
1.52178 -0.882988 0
1.54564 -0.896026 0
1.56816 -0.906985 0
1.59302 -0.918788 0
1.6197 -0.932491 0
1.64584 -0.945667 0
1.67029 -0.957209 0
1.69395 -0.9682 0
1.71876 -0.979658 0
1.74553 -0.991531 0
1.77225 -1.00309 0
1.79659 -1.01403 0
1.81973 -1.0243 0
1.84452 -1.03419 0
1.87138 -1.04461 0
1.89822 -1.05549 0
1.92346 -1.06559 0
1.94738 -1.07428 0
1.97123 -1.08239 0
1.99599 -1.09117 0
2.02179 -1.1008 0
2.04785 -1.10989 0
2.07317 -1.1176 0
2.09749 -1.12444 0
2.12156 -1.13128 0
2.14617 -1.13804 0
2.17128 -1.14427 0
2.19647 -1.14989 0
2.22149 -1.1549 0
2.24648 -1.15928 0
2.27164 -1.16294 0
2.29696 -1.16594 0
2.32234 -1.16848 0
2.3476 -1.1707 0
2.37272 -1.17261 0
2.39772 -1.17412 0
2.42268 -1.17523 0
2.44761 -1.176 0
2.47253 -1.1765 0
2.49745 -1.17679 0
0.0144276 0.0445964 0
0.0549641 0.0465419 0
0.0754191 0.0490914 0
0.0981521 0.0476776 0
0.130826 0.0478034 0
0.153958 0.0480532 0
0.181881 0.0323635 0
0.195329 0.0332557 0
0.220377 0.0394342 0
0.236951 0.019584 0
0.276672 0.0341462 0
0.291983 0.0180781 0
0.340926 -0.00713668 0
0.355969 -0.0262991 0
0.350874 -0.0436308 0
0.403307 -0.0666634 0
0.411537 -0.0894931 0
0.448109 -0.12803 0
0.463068 -0.130616 0
0.490957 -0.155267 0
0.517578 -0.196076 0
0.529128 -0.202066 0
0.567182 -0.221184 0
0.620738 -0.249833 0
0.633575 -0.259378 0
0.64431 -0.283623 0
0.670992 -0.314092 0
0.709373 -0.343803 0
0.718859 -0.351235 0
0.771361 -0.367619 0
0.767079 -0.385618 0
0.802187 -0.39936 0
0.823998 -0.430563 0
0.836568 -0.425182 0
0.87732 -0.470273 0
0.897184 -0.474742 0
0.927126 -0.490446 0
0.946488 -0.494972 0
0.962357 -0.53543 0
1.00924 -0.559358 0
1.04586 -0.58221 0
1.05107 -0.593363 0
1.07542 -0.59555 0
1.09349 -0.604609 0
1.12037 -0.642497 0
1.15619 -0.658112 0
1.17737 -0.664004 0
1.19785 -0.684012 0
1.22673 -0.702379 0
1.25217 -0.708691 0
1.27057 -0.717192 0
1.29208 -0.735269 0
1.32269 -0.753212 0
1.34946 -0.764914 0
1.36857 -0.77845 0
1.39252 -0.792286 0
1.4208 -0.803569 0
1.44456 -0.816622 0
1.46774 -0.831517 0
1.49527 -0.844978 0
1.5216 -0.857737 0
1.54426 -0.870972 0
1.5679 -0.883122 0
1.594 -0.894706 0
1.62006 -0.907853 0
1.64515 -0.920941 0
1.66967 -0.932004 0
1.69413 -0.943032 0
1.7194 -0.95527 0
1.74559 -0.967395 0
1.77154 -0.978727 0
1.7962 -0.989259 0
1.82028 -0.999253 0
1.84523 -1.0095 0
1.87123 -1.02012 0
1.89737 -1.03065 0
1.92292 -1.04041 0
1.94757 -1.04921 0
1.97173 -1.05774 0
1.9964 -1.06699 0
2.02194 -1.0764 0
2.04763 -1.08484 0
2.07268 -1.0922 0
2.0972 -1.09928 0
2.12171 -1.10646 0
2.14645 -1.11327 0
2.17139 -1.1194 0
2.1964 -1.12485 0
2.22144 -1.12984 0
2.24652 -1.13427 0
2.27169 -1.13799 0
2.29696 -1.14104 0
2.32226 -1.1436 0
2.34752 -1.14585 0
2.37267 -1.14776 0
2.39773 -1.14926 0
2.42272 -1.15034 0
2.44766 -1.15105 0
2.47258 -1.15147 0
2.49749 -1.1517 0
0.00421996 0.072255 0
0.045958 0.0808205 0
0.061496 0.0743074 0
0.0859258 0.0812762 0
0.132653 0.0619536 0
0.140771 0.0502217 0
0.177607 0.0686928 0
0.205417 0.0589196 0
0.226815 0.0498981 0
0.245803 0.0345528 0
0.269575 0.0472801 0
0.300553 0.027663 0
0.319633 0.000720363 0
0.359261 -0.0128221 0
0.363489 -0.0366319 0
0.394208 -0.0520739 0
0.425612 -0.0458903 0
0.453185 -0.0816994 0
0.447519 -0.10807 0
0.479294 -0.120284 0
0.516822 -0.142684 0
0.552688 -0.165307 0
0.566453 -0.202994 0
0.598187 -0.228704 0
0.627705 -0.230953 0
0.643698 -0.255395 0
0.657686 -0.281708 0
0.713194 -0.303461 0
0.726105 -0.331629 0
0.760578 -0.355976 0
0.785929 -0.34967 0
0.798842 -0.389809 0
0.816199 -0.404184 0
0.856684 -0.41645 0
0.864385 -0.425212 0
0.891932 -0.446849 0
0.932925 -0.476836 0
0.959503 -0.500954 0
0.972245 -0.522848 0
1.00569 -0.521212 0
1.03161 -0.546425 0
1.05264 -0.568592 0
1.07305 -0.571536 0
1.10102 -0.592051 0
1.12552 -0.614818 0
1.1459 -0.62424 0
1.17583 -0.640179 0
1.20418 -0.659065 0
1.22542 -0.67351 0
1.24903 -0.684709 0
1.27231 -0.695067 0
1.29449 -0.71061 0
1.32153 -0.727102 0
1.34758 -0.74022 0
1.36856 -0.753333 0
1.39327 -0.766708 0
1.42126 -0.779099 0
1.44471 -0.792639 0
1.46736 -0.806165 0
1.49453 -0.819319 0
1.52141 -0.833385 0
1.54438 -0.846434 0
1.56772 -0.857953 0
1.59417 -0.870743 0
1.62059 -0.883875 0
1.64483 -0.895478 0
1.6689 -0.90667 0
1.6942 -0.918376 0
1.71999 -0.930684 0
1.74567 -0.943117 0
1.77103 -0.954275 0
1.79585 -0.964242 0
1.82061 -0.974438 0
1.84575 -0.984882 0
1.87113 -0.99524 0
1.89678 -1.00561 0
1.92254 -1.01538 0
1.94766 -1.02424 0
1.97211 -1.0333 0
1.99681 -1.04278 0
2.0221 -1.05167 0
2.0474 -1.05954 0
2.0723 -1.0669 0
2.09702 -1.07432 0
2.12179 -1.08172 0
2.1466 -1.08846 0
2.17146 -1.09447 0
2.19639 -1.09977 0
2.22142 -1.10478 0
2.24653 -1.10924 0
2.27171 -1.11302 0
2.29694 -1.11614 0
2.32221 -1.11877 0
2.34746 -1.12106 0
2.37264 -1.12299 0
2.39774 -1.12449 0
2.42276 -1.12551 0
2.44772 -1.12613 0
2.47263 -1.12644 0
2.49752 -1.12659 0
0.0059395 0.0892943 0
0.0282671 0.090524 0
0.0549692 0.106984 0
0.0999826 0.102466 0
0.136321 0.0985064 0
0.144208 0.0880357 0
0.168156 0.0765486 0
0.20565 0.0917786 0
0.218902 0.0576236 0
0.258979 0.0675502 0
0.27762 0.0554552 0
0.308647 0.0485133 0
0.326835 0.0352203 0
0.346566 0.00270826 0
0.369953 -0.0107783 0
0.388912 -0.0211902 0
0.425556 -0.0322839 0
0.445527 -0.0561412 0
0.484165 -0.0506114 0
0.487928 -0.127221 0
0.516851 -0.113168 0
0.542567 -0.158394 0
0.582731 -0.161443 0
0.605418 -0.188068 0
0.632023 -0.204288 0
0.653482 -0.232277 0
0.671868 -0.241031 0
0.712365 -0.261175 0
0.737423 -0.302235 0
0.746315 -0.309383 0
0.792925 -0.336373 0
0.803208 -0.347762 0
0.816523 -0.373764 0
0.859499 -0.392428 0
0.879007 -0.405789 0
0.910969 -0.436111 0
0.933631 -0.444777 0
0.951011 -0.464001 0
0.973186 -0.490574 0
1.00419 -0.497424 0
1.02711 -0.510061 0
1.04596 -0.540564 0
1.07473 -0.557447 0
1.10796 -0.570481 0
1.12807 -0.58941 0
1.14583 -0.600316 0
1.17512 -0.609777 0
1.20325 -0.632293 0
1.2252 -0.648745 0
1.24793 -0.657046 0
1.27229 -0.671472 0
1.29704 -0.689538 0
1.32177 -0.702215 0
1.34428 -0.712893 0
1.36747 -0.727942 0
1.39548 -0.742507 0
1.42244 -0.754305 0
1.44404 -0.767848 0
1.46693 -0.7823 0
1.49436 -0.794627 0
1.52071 -0.807363 0
1.544 -0.821198 0
1.56821 -0.83413 0
1.59463 -0.846508 0
1.62059 -0.859039 0
1.64456 -0.870539 0
1.6684 -0.88139 0
1.6941 -0.893682 0
1.72055 -0.906736 0
1.74581 -0.918491 0
1.77042 -0.929124 0
1.79556 -0.939497 0
1.82094 -0.94989 0
1.84603 -0.960232 0
1.87106 -0.970373 0
1.89651 -0.980448 0
1.92227 -0.990253 0
1.94761 -0.999635 0
1.97237 -1.00905 0
1.99714 -1.01834 0
2.0222 -1.02674 0
2.04724 -1.03423 0
2.07208 -1.0417 0
2.0969 -1.0495 0
2.12178 -1.05704 0
2.14665 -1.06367 0
2.1715 -1.06946 0
2.1964 -1.07473 0
2.22141 -1.07969 0
2.24652 -1.08419 0
2.27171 -1.08806 0
2.29694 -1.09127 0
2.32219 -1.09397 0
2.34743 -1.09631 0
2.37262 -1.09828 0
2.39775 -1.09977 0
2.42279 -1.10073 0
2.44776 -1.10122 0
2.47266 -1.1014 0
2.49753 -1.10144 0
0.0188445 0.134601 0
0.0403235 0.124625 0
0.0784533 0.109494 0
0.0993658 0.112758 0
0.108935 0.107066 0
0.140785 0.121904 0
0.170681 0.0958243 0
0.190744 0.0930444 0
0.217515 0.0693834 0
0.265614 0.0803146 0
0.279252 0.0819824 0
0.299042 0.0640687 0
0.327074 0.0588337 0
0.332168 0.0448703 0
0.377186 0.0186915 0
0.401369 0.00759236 0
0.424555 -0.0168423 0
0.457828 -0.0440679 0
0.473649 -0.0472561 0
0.479007 -0.0611047 0
0.528632 -0.113847 0
0.550092 -0.13372 0
0.569115 -0.14935 0
0.599089 -0.178637 0
0.622591 -0.167964 0
0.663663 -0.201756 0
0.68183 -0.239567 0
0.710172 -0.233342 0
0.728143 -0.258597 0
0.744179 -0.281142 0
0.792847 -0.308254 0
0.809515 -0.330919 0
0.815685 -0.341727 0
0.873029 -0.369606 0
0.894688 -0.395217 0
0.90283 -0.40569 0
0.923438 -0.415839 0
0.950997 -0.432849 0
0.970868 -0.450222 0
1.00697 -0.477494 0
1.0333 -0.498472 0
1.04555 -0.50919 0
1.0735 -0.530453 0
1.10773 -0.549846 0
1.12855 -0.563919 0
1.15102 -0.576403 0
1.1785 -0.588236 0
1.20025 -0.605404 0
1.22213 -0.620064 0
1.24782 -0.63246 0
1.27288 -0.648696 0
1.29813 -0.664678 0
1.32181 -0.676581 0
1.34261 -0.687176 0
1.36696 -0.702044 0
1.39658 -0.718245 0
1.423 -0.731125 0
1.44368 -0.74295 0
1.46657 -0.756562 0
1.49432 -0.770384 0
1.52054 -0.783035 0
1.54356 -0.795767 0
1.56817 -0.809298 0
1.59516 -0.822423 0
1.62071 -0.834193 0
1.64405 -0.845181 0
1.66818 -0.856711 0
1.69438 -0.869622 0
1.72069 -0.882504 0
1.74561 -0.893516 0
1.77005 -0.903771 0
1.79542 -0.914686 0
1.82114 -0.925672 0
1.84617 -0.935801 0
1.87103 -0.945362 0
1.89645 -0.955174 0
1.92215 -0.965222 0
1.94753 -0.975185 0
1.97248 -0.984872 0
1.99731 -0.993771 0
2.02226 -1.00162 0
2.0472 -1.00899 0
2.07201 -1.01667 0
2.09681 -1.02468 0
2.12171 -1.03228 0
2.14664 -1.03889 0
2.17152 -1.0445 0
2.1964 -1.04965 0
2.22139 -1.05459 0
2.24651 -1.05918 0
2.27173 -1.06314 0
2.29696 -1.06643 0
2.32219 -1.06919 0
2.34741 -1.07158 0
2.37261 -1.07357 0
2.39776 -1.07506 0
2.42282 -1.07596 0
2.44778 -1.07632 0
2.47267 -1.07634 0
2.49752 -1.07626 0
0.00970736 0.142324 0
0.0716164 0.144315 0
0.0662955 0.13532 0
0.0982395 0.151874 0
0.13864 0.151598 0
0.1431 0.14222 0
0.187044 0.137802 0
0.196142 0.129809 0
0.216501 0.130384 0
0.261131 0.0982478 0
0.289731 0.123225 0
0.293757 0.0725581 0
0.334035 0.0697179 0
0.341722 0.0632135 0
0.3815 0.0285934 0
0.40543 0.0237565 0
0.438773 0.00721738 0
0.451846 -0.00926335 0
0.485424 -0.0048788 0
0.48339 -0.0346857 0
0.525908 -0.0886946 0
0.556707 -0.0894858 0
0.562644 -0.123935 0
0.598884 -0.140143 0
0.60961 -0.151275 0
0.655272 -0.169208 0
0.666407 -0.177602 0
0.687621 -0.231414 0
0.726962 -0.232672 0
0.754547 -0.256333 0
0.781426 -0.292725 0
0.802979 -0.303732 0
0.846024 -0.319272 0
0.856431 -0.361121 0
0.885809 -0.335692 0
0.887706 -0.355054 0
0.930422 -0.40786 0
0.962436 -0.406685 0
0.973478 -0.421489 0
1.00405 -0.459277 0
1.03349 -0.479114 0
1.05124 -0.485016 0
1.07593 -0.502952 0
1.10417 -0.525592 0
1.1284 -0.536223 0
1.15353 -0.549056 0
1.17758 -0.569931 0
1.20014 -0.582945 0
1.22247 -0.59214 0
1.24592 -0.60617 0
1.27241 -0.624042 0
1.29913 -0.640728 0
1.32124 -0.650556 0
1.34229 -0.661327 0
1.36841 -0.678312 0
1.39681 -0.69422 0
1.42112 -0.70588 0
1.44279 -0.717517 0
1.46764 -0.732097 0
1.49504 -0.746724 0
1.52013 -0.758861 0
1.54309 -0.770373 0
1.56803 -0.784115 0
1.59514 -0.798262 0
1.62066 -0.809557 0
1.64403 -0.81975 0
1.66833 -0.832429 0
1.69451 -0.846221 0
1.72052 -0.857984 0
1.74524 -0.868124 0
1.76987 -0.8786 0
1.79546 -0.890134 0
1.82119 -0.901618 0
1.84621 -0.911458 0
1.87103 -0.920303 0
1.8964 -0.929907 0
1.92213 -0.940429 0
1.94755 -0.950914 0
1.97246 -0.960618 0
1.99729 -0.969087 0
2.02233 -0.976517 0
2.04728 -0.983855 0
2.07199 -0.991734 0
2.09671 -0.999917 0
2.12163 -1.00757 0
2.14661 -1.01408 0
2.17151 -1.01957 0
2.19637 -1.02458 0
2.22136 -1.02957 0
2.24652 -1.03425 0
2.27176 -1.0383 0
2.29698 -1.04162 0
2.32219 -1.0444 0
2.3474 -1.04682 0
2.3726 -1.04885 0
2.39777 -1.05034 0
2.42284 -1.05117 0
2.4478 -1.0514 0
2.47266 -1.05127 0
2.49749 -1.05106 0
0.00929138 0.178109 0
0.0471919 0.156495 0
0.044533 0.181653 0
0.0910465 0.168638 0
0.122569 0.175247 0
0.152022 0.15762 0
0.181086 0.184794 0
0.19996 0.146302 0
0.221624 0.152415 0
0.252992 0.13887 0
0.282329 0.131417 0
0.304887 0.111285 0
0.328284 0.115682 0
0.350054 0.0982468 0
0.377434 0.0947244 0
0.393038 0.0405578 0
0.417482 0.0198242 0
0.454287 0.0155998 0
0.475002 0.005429 0
0.510191 -0.00737406 0
0.541774 -0.00776689 0
0.55763 -0.0561448 0
0.566029 -0.0794761 0
0.587273 -0.142862 0
0.624702 -0.130951 0
0.65093 -0.159852 0
0.678348 -0.135835 0
0.709567 -0.189366 0
0.729306 -0.2167 0
0.751413 -0.230958 0
0.763855 -0.259988 0
0.805006 -0.279706 0
0.831449 -0.2738 0
0.851424 -0.304756 0
0.875107 -0.324688 0
0.916083 -0.346474 0
0.932295 -0.371034 0
0.945333 -0.389831 0
0.97168 -0.395292 0
1.00508 -0.432189 0
1.03334 -0.460164 0
1.05278 -0.457302 0
1.07861 -0.4728 0
1.10817 -0.50481 0
1.12904 -0.512843 0
1.14765 -0.518041 0
1.17567 -0.545633 0
1.20411 -0.565377 0
1.22357 -0.565102 0
1.24391 -0.575402 0
1.27202 -0.600581 0
1.29865 -0.616401 0
1.32003 -0.623449 0
1.34368 -0.637662 0
1.37083 -0.656196 0
1.39597 -0.670003 0
1.41813 -0.679652 0
1.44194 -0.692113 0
1.46924 -0.708958 0
1.49622 -0.724074 0
1.51979 -0.734151 0
1.54241 -0.744851 0
1.5677 -0.759869 0
1.59489 -0.774426 0
1.62061 -0.784833 0
1.64433 -0.794947 0
1.66857 -0.808532 0
1.69442 -0.822865 0
1.72019 -0.833847 0
1.74494 -0.842754 0
1.7698 -0.853574 0
1.79548 -0.866359 0
1.82127 -0.877856 0
1.84628 -0.886991 0
1.87088 -0.895451 0
1.89622 -0.904999 0
1.92227 -0.915989 0
1.94774 -0.926997 0
1.97233 -0.936425 0
1.99713 -0.944336 0
2.02242 -0.951653 0
2.04742 -0.959031 0
2.07196 -0.966904 0
2.09659 -0.975236 0
2.12158 -0.983068 0
2.14662 -0.989492 0
2.17148 -0.994663 0
2.19631 -0.9996 0
2.22131 -1.00465 0
2.24654 -1.00951 0
2.27179 -1.01356 0
2.297 -1.01682 0
2.32219 -1.0196 0
2.34739 -1.02204 0
2.37261 -1.0241 0
2.39779 -1.02559 0
2.42288 -1.02634 0
2.44781 -1.02644 0
2.47264 -1.02618 0
2.49744 -1.02588 0
</DataArray>
</Points>
<PointData>
<DataArray NumberOfComponents='1' type='Int32' Name='Particle Type' format='ascii'>
0
0
0
0
0
0
0
0
0
0
0
0
0
0
0
0
0
0
0
0
0
0
1
1
1
1
1
1
1
1
1
1
1
1
1
1
1
1
1
1
1
1
1
1
1
1
1
1
1
1
1
1
1
1
1
1
1
1
1
1
1
1
1
1
1
1
1
1
1
1
1
1
1
1
1
1
1
1
1
1
1
1
1
1
1
1
1
1
1
1
1
1
1
1
1
1
1
1
1
1
1
1
1
1
1
1
1
1
1
1
1
1
1
1
1
1
1
1
1
1
1
1
1
1
1
1
1
1
1
1
1
1
1
1
1
1
1
1
1
1
1
1
1
1
1
1
1
1
1
1
1
1
1
1
1
1
1
1
1
1
1
1
1
1
1
1
1
1
1
1
1
1
1
1
1
1
1
1
1
1
1
1
1
1
1
1
1
1
1
1
1
1
1
1
1
1
1
1
1
1
1
1
1
1
1
1
1
1
1
1
1
1
1
1
1
1
1
1
1
1
1
1
1
1
1
1
1
1
1
1
1
1
1
1
1
1
1
1
1
1
1
1
1
1
1
1
1
1
1
1
1
1
1
1
1
1
1
1
1
1
1
1
1
1
1
1
1
1
1
1
1
1
1
1
1
1
1
1
1
1
1
1
1
1
1
1
1
1
1
1
1
1
1
1
1
1
1
1
1
1
1
1
1
1
1
1
1
1
1
1
1
1
1
1
1
1
1
1
1
1
1
1
1
1
1
1
1
1
1
1
1
1
1
1
1
1
1
1
1
1
1
1
1
1
1
1
1
1
1
1
1
1
1
1
1
1
1
1
1
1
1
1
1
1
1
1
1
1
1
1
1
1
1
1
1
1
1
1
1
1
1
1
1
1
1
1
1
1
1
1
1
1
1
1
1
1
1
1
1
1
1
1
1
1
1
1
1
1
1
1
1
1
1
1
1
1
1
1
1
1
1
1
1
1
1
1
1
1
1
1
1
1
1
1
1
1
1
1
1
1
1
1
1
1
1
1
1
1
1
1
1
1
1
1
1
1
1
1
1
1
1
1
1
1
1
1
1
1
1
1
1
1
1
1
1
1
1
1
1
1
1
1
1
1
1
1
1
1
1
1
1
1
1
1
1
1
1
1
1
1
1
1
1
1
1
1
1
1
1
1
1
1
1
1
1
1
1
1
1
1
1
1
1
1
1
1
1
1
1
1
1
1
1
1
1
1
1
1
1
1
1
1
1
1
1
1
1
1
1
1
1
1
1
1
1
1
1
1
1
1
1
1
1
1
1
1
1
1
1
1
1
1
1
1
1
1
1
1
1
1
1
1
1
1
1
1
1
1
1
1
1
1
1
1
1
1
1
1
1
1
1
1
1
1
1
1
1
1
1
1
1
1
1
1
1
1
1
1
1
1
1
1
1
1
1
1
1
1
1
1
1
1
1
1
1
1
1
1
1
1
1
1
1
1
1
1
1
1
1
1
1
1
1
1
1
1
1
1
1
1
1
1
1
1
1
1
1
1
1
1
1
1
1
1
1
1
1
1
1
1
1
1
1
1
1
1
1
1
1
1
1
1
1
1
1
1
1
1
1
1
1
1
1
1
1
1
1
1
1
1
1
1
1
1
1
1
1
1
1
1
1
1
1
1
1
1
1
1
1
1
1
1
1
1
1
1
1
1
1
1
1
1
1
1
1
1
1
1
1
1
1
1
1
1
1
1
1
1
1
1
1
1
1
1
1
1
1
1
1
1
1
1
1
1
1
1
1
1
1
1
1
1
1
1
1
1
1
1
1
1
1
1
1
1
1
1
1
1
1
1
1
1
1
1
1
1
1
1
</DataArray>
<DataArray NumberOfComponents='3' type='Float64' Name='Velocity' format='ascii'>
-0.735699 -0.250069 0
0 0 0
-0.759375 -0.0896113 0
-0.532677 0.408378 0
-0.040161 -0.00260138 0
-0.317554 0.0573296 0
-0.265612 -0.0368944 0
-0.540198 0.23978 0
0.180692 -0.171073 0
-0.0814676 -0.133954 0
0.129468 -0.192054 0
-0.0252142 -0.207763 0
0.0605133 -0.429154 0
0.376891 -0.837306 0
0.329871 -0.31467 0
0.061625 -0.975356 0
-0.56699 -0.20656 0
-0.125847 -0.580021 0
-0.414861 -0.45647 0
0.0637138 -0.946087 0
-0.0960535 -0.446931 0
-0.488458 0.328829 0
-0.119008 -0.624159 0
0.0997231 0.00818199 0
0.804088 0.298774 0
0.0666989 0.245367 0
-0.275752 -1.18881 0
-0.37374 0.130242 0
0.267006 0.57987 0
-0.54537 -0.388207 0
-0.0223632 -0.189071 0
-0.147124 0.529728 0
0.330254 0.0153584 0
0.220179 -0.612531 0
-0.441558 0.0935361 0
-0.0192879 -0.996463 0
-0.567528 -0.596491 0
0.89938 0.703963 0
-0.547627 0.763721 0
-0.164663 -0.620246 0
-0.319081 0.270716 0
-0.0818672 -1.07974 0
0.841923 0.24734 0
-0.141969 0.454346 0
-0.102029 -0.425855 0
0.657534 -0.126878 0
-0.423225 -0.133067 0
0.425487 -0.616264 0
0.615792 -0.0837599 0
-0.701683 -0.162566 0
0.00309105 0.337287 0
0.0720414 -0.561461 0
0.47201 -0.902423 0
-0.188544 -0.123984 0
0.0296701 0.0585565 0
-0.111518 -0.137836 0
-0.190513 -0.406697 0
0.11366 -0.339259 0
0.244986 -0.272627 0
-0.0750802 -0.32309 0
-0.172486 -0.296529 0
0.206504 -0.378949 0
0.172786 -0.384487 0
-0.316769 -0.129473 0
-0.175422 -0.161572 0
0.306991 -0.460457 0
0.151973 -0.470308 0
-0.248444 -0.223298 0
-0.127448 -0.227641 0
0.148622 -0.409596 0
0.114682 -0.448365 0
-0.0513976 -0.307206 0
-0.0983922 -0.251396 0
-0.0272401 -0.327336 0
0.0651813 -0.39078 0
0.0690567 -0.391978 0
-0.038192 -0.377988 0
-0.102961 -0.363069 0
-0.0194198 -0.354828 0
0.0889523 -0.385167 0
0.0687851 -0.431221 0
-0.0519114 -0.425079 0
-0.116243 -0.379078 0
-0.0522322 -0.372149 0
0.0387888 -0.426162 0
0.053658 -0.482626 0
0.0110032 -0.476997 0
-0.0368192 -0.420286 0
-0.0702333 -0.380162 0
-0.0669997 -0.392414 0
-0.0180042 -0.428953 0
0.0275251 -0.442495 0
0.0217679 -0.42803 0
-0.012823 -0.406114 0
-0.0267911 -0.392824 0
-0.0108748 -0.395209 0
0.00655971 -0.401355 0
0.00690978 -0.411562 0
-0.00428622 -0.410666 0
-0.0136987 -0.407713 0
-0.014492 -0.401963 0
-0.0108502 -0.398999 0
-0.00904657 -0.404996 0
-0.0100787 -0.418646 0
-0.0129989 -0.434606 0
-0.0173996 -0.447938 0
-0.0225167 -0.456256 0
-0.0268375 -0.460331 0
0.107374 0.579003 0
-0.350283 -0.421658 0
-0.279998 -0.493588 0
0.308903 -0.759297 0
0.043648 0.706949 0
-0.0580356 -0.081918 0
-0.290503 -0.767778 0
0.277462 0.558919 0
-0.0784828 -0.145943 0
-0.0956195 0.0911537 0
0.00495345 0.416311 0
-0.0594902 -0.168531 0
0.111894 0.36655 0
-0.254729 -0.019247 0
0.596622 -0.147509 0
-0.466654 -0.236391 0
-0.0414788 -0.28905 0
0.75435 -0.65244 0
0.264033 -0.455174 0
0.0628579 0.109503 0
-1.37612 -0.345102 0
1.25339 0.752032 0
-0.100793 -0.296367 0
-0.740791 -0.156688 0
0.599431 -1.00301 0
-0.338197 0.53372 0
0.111388 -0.145422 0
-0.606783 0.461392 0
-0.594942 -0.205837 0
0.160577 -0.475324 0
0.108144 -0.765325 0
0.120304 0.048912 0
-0.349406 -0.0869707 0
-0.258361 -0.389408 0
0.617347 -0.10107 0
-0.158108 -0.605811 0
-0.391424 -0.979459 0
0.44458 -0.163627 0
-0.663581 0.0604829 0
-0.365393 0.316285 0
-0.138011 -0.367349 0
0.327201 -0.956509 0
0.0502587 -0.244744 0
-0.0476679 -0.20581 0
-0.428347 0.0850076 0
0.0159432 -0.386471 0
0.299788 -0.25313 0
-0.125873 -0.149877 0
-0.115929 -0.386849 0
0.102561 -0.425711 0
0.166926 -0.302316 0
-0.0197784 -0.234732 0
-0.153685 -0.284673 0
0.0660582 -0.321395 0
0.143755 -0.326634 0
-0.0718968 -0.311271 0
-0.0815735 -0.312181 0
0.0739054 -0.316748 0
0.0172979 -0.307781 0
-0.0858259 -0.312559 0
-0.026517 -0.301957 0
0.0692455 -0.364212 0
0.0452555 -0.378738 0
-0.0317221 -0.322402 0
-0.054359 -0.298081 0
-0.0105701 -0.341829 0
0.037622 -0.378477 0
0.0325218 -0.379999 0
-0.0250638 -0.361883 0
-0.0626846 -0.359226 0
-0.015061 -0.377309 0
0.0541236 -0.396894 0
0.040778 -0.413354 0
-0.0338342 -0.409074 0
-0.0729304 -0.390007 0
-0.0434305 -0.395369 0
0.00792206 -0.434358 0
0.0300171 -0.462637 0
0.0109057 -0.452515 0
-0.0293778 -0.411335 0
-0.0574985 -0.391808 0
-0.0499248 -0.414477 0
-0.0152979 -0.439214 0
0.0101024 -0.43444 0
0.00676557 -0.412767 0
-0.00918886 -0.401223 0
-0.0145337 -0.403105 0
-0.00712767 -0.402988 0
0.00114813 -0.403177 0
0.00146011 -0.404811 0
-0.00416511 -0.407748 0
-0.00979136 -0.407329 0
-0.0121042 -0.402738 0
-0.0114499 -0.400003 0
-0.0106861 -0.405198 0
-0.0114485 -0.417723 0
-0.0138612 -0.432583 0
-0.0175744 -0.444969 0
-0.0218087 -0.452703 0
-0.025499 -0.456428 0
0.440782 -0.259419 0
-0.661976 0.278687 0
0.0954261 0.196696 0
1.00833 0.221711 0
0.300547 0.193665 0
-0.266155 0.305968 0
0.279163 -0.139253 0
0.297349 -0.0665421 0
-0.0428928 -0.0885355 0
0.0316737 0.0769133 0
0.347105 -0.435969 0
0.330182 0.44093 0
0.082068 -0.499287 0
-0.148343 -0.0239816 0
0.0199284 0.0912938 0
0.38906 -0.126096 0
-0.0240981 -0.268182 0
-0.157353 -0.34976 0
-0.211372 0.719004 0
0.2743 0.210892 0
-0.274343 -0.319881 0
0.435506 -0.532602 0
-0.369723 0.808932 0
0.415792 0.0442085 0
0.389225 -0.0666865 0
-0.77707 0.202411 0
-0.511808 0.374983 0
-0.111795 -0.28064 0
0.591269 -0.649019 0
-0.13341 -0.544455 0
-0.0448518 -0.294033 0
0.0847813 0.17494 0
0.805372 -0.989827 0
0.131324 -0.499981 0
-0.0522303 -0.123741 0
0.409929 -0.30078 0
-0.333244 -1.21894 0
0.45206 0.483541 0
-0.277287 0.145382 0
-0.880666 -0.164397 0
0.322634 -0.315783 0
0.364257 -0.432406 0
0.21069 -0.795006 0
0.262444 0.195304 0
-0.370396 0.333851 0
-0.183619 -0.51941 0
0.211814 -0.33187 0
-0.0174318 -0.0792562 0
-0.129388 -0.378076 0
0.132782 -0.599735 0
0.215165 -0.318042 0
-0.0763081 -0.0966523 0
-0.202185 -0.266611 0
0.0941259 -0.336918 0
0.156591 -0.289267 0
-0.0626467 -0.363932 0
-0.0493747 -0.378396 0
0.0622437 -0.269663 0
-0.0367612 -0.26592 0
-0.0909544 -0.326052 0
0.0325641 -0.32422 0
0.0769654 -0.3234 0
-0.00648001 -0.366836 0
-0.0452326 -0.349169 0
-0.0178629 -0.306315 0
0.00707899 -0.350103 0
0.0197802 -0.394144 0
0.00901618 -0.361723 0
-0.0237519 -0.339667 0
-0.0365132 -0.359286 0
-0.00674031 -0.385689 0
0.0289428 -0.411421 0
0.0209662 -0.414675 0
-0.0184349 -0.397913 0
-0.0424905 -0.391283 0
-0.0379213 -0.406326 0
-0.0144364 -0.434715 0
0.0101478 -0.453004 0
0.00837521 -0.434449 0
-0.0220937 -0.404553 0
-0.0450438 -0.408189 0
-0.0361503 -0.433393 0
-0.0136178 -0.439116 0
-0.00283941 -0.421417 0
-0.00422619 -0.405175 0
-0.00766502 -0.40369 0
-0.00729592 -0.409762 0
-0.00460931 -0.405886 0
-0.00178328 -0.403996 0
-0.00103351 -0.403689 0
-0.00345363 -0.406696 0
-0.00736745 -0.406644 0
-0.0105498 -0.402082 0
-0.011893 -0.399569 0
-0.0122559 -0.404592 0
-0.0130396 -0.416481 0
-0.0149095 -0.43047 0
-0.0177808 -0.441886 0
-0.0210891 -0.448725 0
-0.024143 -0.451753 0
0.477397 0.180541 0
0.893138 -0.0846144 0
0.353566 0.0129241 0
0.178873 0.0661536 0
0.196755 0.0189939 0
-0.682165 0.20059 0
0.0193953 -0.122628 0
-0.46674 0.620668 0
-0.318697 -0.225211 0
0.277263 0.539508 0
-0.402821 -0.555362 0
0.818061 -0.0387655 0
-0.322565 -0.537407 0
0.281647 -0.344245 0
-0.57796 0.473106 0
0.153265 0.259213 0
-0.0168244 -1.01407 0
0.051268 0.688262 0
-0.467627 0.329337 0
-0.443095 -0.031548 0
-0.0566025 0.0600635 0
-1.036 -0.64993 0
0.392418 -0.10185 0
-0.470825 -0.483401 0
-0.797243 0.231898 0
0.247308 -0.522146 0
0.0140924 -0.0809119 0
-0.656986 0.0612559 0
0.646978 -0.00446837 0
0.0296083 -0.165111 0
0.25668 -0.986724 0
0.36786 0.449334 0
-0.35615 -0.284795 0
-0.289337 -0.116717 0
0.184551 -0.361172 0
-0.655144 0.0832994 0
-0.691886 -0.16854 0
0.343421 0.727937 0
-0.0341581 -0.634688 0
0.0430413 -0.372464 0
0.146624 0.12199 0
0.18714 -0.559072 0
0.0811099 -0.427198 0
-0.0763684 0.040337 0
0.162341 -0.319719 0
-0.0254347 -0.352187 0
-0.254225 -0.117368 0
0.0116546 -0.225904 0
0.101935 -0.330084 0
0.0249428 -0.39905 0
0.0969217 -0.358051 0
0.0156497 -0.217466 0
-0.0997042 -0.256148 0
0.0567717 -0.327146 0
0.100242 -0.322572 0
-0.0724392 -0.345806 0
-0.0429537 -0.329471 0
0.0849518 -0.305047 0
-0.00517467 -0.316034 0
-0.0989128 -0.289946 0
0.00198048 -0.28626 0
0.0807274 -0.35871 0
-0.000350986 -0.355324 0
-0.0653583 -0.311736 0
-0.0100584 -0.346543 0
0.0387767 -0.382419 0
0.0106708 -0.370839 0
-0.0208269 -0.351876 0
-0.0226017 -0.332903 0
-0.015418 -0.349565 0
0.00116578 -0.403209 0
0.0135032 -0.420591 0
0.0039111 -0.40491 0
-0.0094025 -0.401133 0
-0.0199465 -0.398062 0
-0.0339354 -0.404281 0
-0.0291175 -0.432996 0
-0.00394705 -0.441206 0
0.0026308 -0.416588 0
-0.0178804 -0.410047 0
-0.0317419 -0.429446 0
-0.0247954 -0.442395 0
-0.0146554 -0.431263 0
-0.0118402 -0.410921 0
-0.010282 -0.403102 0
-0.00707042 -0.407582 0
-0.00429538 -0.415057 0
-0.00311867 -0.410453 0
-0.00245107 -0.40368 0
-0.00181941 -0.404382 0
-0.00294569 -0.405645 0
-0.00616572 -0.404777 0
-0.00973123 -0.400202 0
-0.0122557 -0.398154 0
-0.0136289 -0.403379 0
-0.0146533 -0.414994 0
-0.0160608 -0.428365 0
-0.0180236 -0.438891 0
-0.0203309 -0.44471 0
-0.0226534 -0.4469 0
0.0131159 1.15968 0
0.528127 0.00318932 0
0.945944 -0.624045 0
-0.240037 -0.365065 0
0.0176358 -0.0600454 0
0.802922 0.0851243 0
0.339925 -1.6563 0
0.628043 -0.359393 0
-0.547904 -0.0926363 0
-1.00514 -0.147787 0
-0.0233957 -0.44223 0
0.66758 -0.434929 0
0.490387 1.10069 0
0.315359 -0.31358 0
-1.05212 -0.322651 0
0.634671 -0.408724 0
-0.0422008 -0.873492 0
0.435995 0.328737 0
-0.286327 0.1334 0
-0.3699 0.130813 0
-0.610797 0.549812 0
-0.0894244 -0.800409 0
0.438837 -1.20511 0
0.555401 -0.135774 0
0.0695137 -0.874883 0
0.688991 -0.273723 0
0.209818 -0.560542 0
-0.240004 0.164426 0
0.194649 0.261074 0
0.317082 -0.487322 0
-0.131663 0.619507 0
-0.00204891 0.237913 0
-0.729688 0.1056 0
0.169327 -0.686613 0
0.0568942 0.575653 0
-0.0464498 -0.391971 0
0.613353 -0.361608 0
0.287596 -0.290127 0
-0.181384 -0.29362 0
-0.0446127 -0.760269 0
0.244003 0.0635407 0
0.0252721 0.157883 0
-0.296972 -0.363655 0
-0.0822751 -0.268884 0
0.303933 -0.306382 0
0.0436114 -0.545569 0
-0.199396 -0.215527 0
-0.0134835 -0.0268517 0
0.0970008 -0.371595 0
0.038132 -0.393153 0
0.0119104 -0.167549 0
0.00356412 -0.240884 0
0.0474647 -0.412441 0
0.0849646 -0.3355 0
-0.0387002 -0.248436 0
-0.121969 -0.344128 0
0.031433 -0.342629 0
0.119008 -0.271449 0
-0.0175851 -0.313708 0
-0.0869483 -0.353819 0
0.00792349 -0.300158 0
0.0463825 -0.295845 0
-0.0194451 -0.336695 0
-0.0497468 -0.340828 0
0.00345261 -0.35304 0
0.0484837 -0.392418 0
0.0110144 -0.374278 0
-0.0452254 -0.318947 0
-0.0301856 -0.330336 0
0.0119266 -0.379348 0
0.00983478 -0.402597 0
-0.00842783 -0.407248 0
-0.00598195 -0.405347 0
0.000316667 -0.405004 0
-0.010724 -0.406537 0
-0.0308872 -0.408499 0
-0.0328941 -0.420295 0
-0.014286 -0.422535 0
-0.00458705 -0.413505 0
-0.0141065 -0.42211 0
-0.0220797 -0.44436 0
-0.018689 -0.445282 0
-0.0151327 -0.421061 0
-0.0155382 -0.401884 0
-0.0135408 -0.403714 0
-0.0076706 -0.415275 0
-0.00362371 -0.419435 0
-0.00231578 -0.413957 0
-0.00194701 -0.406564 0
-0.00211682 -0.403113 0
-0.00305349 -0.40327 0
-0.00555335 -0.402033 0
-0.00904894 -0.397838 0
-0.0124305 -0.396265 0
-0.0148194 -0.401685 0
-0.0162145 -0.413321 0
-0.0171534 -0.426459 0
-0.0181444 -0.436266 0
-0.0194819 -0.440952 0
-0.0211755 -0.442115 0
-0.160576 -1.01131 0
0.284616 0.26428 0
-0.848357 0.246082 0
-1.0345 -0.128469 0
-0.239197 -0.0470692 0
-0.878304 1.2222 0
-0.599473 -0.391464 0
0.621134 -0.0542525 0
-0.0825253 0.12736 0
-0.111297 0.031611 0
0.651769 -0.702322 0
-0.34652 0.106902 0
-0.185165 -0.45662 0
-0.00496237 -0.276226 0
0.944898 -1.11906 0
-1.18976 -0.335238 0
0.529865 -0.177765 0
-0.617597 0.0538692 0
-0.0298762 -0.154112 0
0.684593 -0.552786 0