<?xml version='1.0' encoding='UTF-8'?>
<VTKFile byte_order='LittleEndian' version='0.1' type = 'UnstructuredGrid'>
<UnstructuredGrid>
<FieldData>
<DataArray type='Float64' Name='Time' NumberOfComponents='1' NumberOfTuples='1' format='ascii'>
0.08
</DataArray>
</FieldData>
<Piece NumberOfCells='808' NumberOfPoints='808'>
<Points>
<DataArray NumberOfComponents='3' type='Float64' Name='position' format='ascii'>
0 0 0
0 0.025 0
0 0.05 0
0 0.075 0
0 0.1 0
0 0.125 0
0 0.15 0
0 0.175 0
0.025 0 0
0.05 0 0
0.075 0 0
0.1 0 0
0.125 0 0
0.15 0 0
0.175 0 0
0.2 0 0
0.225 0 0
0.25 0 0
0.275 0 0
0.3 0 0
0.325 0 0
0.35 0 0
0.375017 -0.000510733 0
0.400003 -0.000601233 0
0.425001 -0.00061465 0
0.45 -0.000616081 0
0.475 -0.000616195 0
0.5 -0.0006162 0
0.525 -0.0006162 0
0.55 -0.0006162 0
0.575 -0.0006162 0
0.6 -0.0006162 0
0.625 -0.0006162 0
0.65 -0.0006162 0
0.675 -0.0006162 0
0.7 -0.0006162 0
0.725 -0.0006162 0
0.75 -0.0006162 0
0.775 -0.0006162 0
0.8 -0.0006162 0
0.825 -0.0006162 0
0.85 -0.0006162 0
0.875 -0.0006162 0
0.9 -0.0006162 0
0.925 -0.0006162 0
0.95 -0.0006162 0
0.975 -0.0006162 0
1 -0.0006162 0
1.025 -0.0006162 0
1.05 -0.0006162 0
1.075 -0.0006162 0
1.1 -0.0006162 0
1.125 -0.0006162 0
1.15 -0.0006162 0
1.175 -0.0006162 0
1.2 -0.0006162 0
1.225 -0.0006162 0
1.25 -0.0006162 0
1.275 -0.0006162 0
1.3 -0.0006162 0
1.325 -0.0006162 0
1.35 -0.0006162 0
1.375 -0.0006162 0
1.4 -0.0006162 0
1.425 -0.0006162 0
1.45 -0.0006162 0
1.475 -0.0006162 0
1.5 -0.0006162 0
1.525 -0.0006162 0
1.55 -0.0006162 0
1.575 -0.0006162 0
1.6 -0.0006162 0
1.625 -0.0006162 0
1.65 -0.0006162 0
1.675 -0.0006162 0
1.7 -0.0006162 0
1.725 -0.0006162 0
1.75 -0.0006162 0
1.775 -0.0006162 0
1.8 -0.0006162 0
1.825 -0.0006162 0
1.85 -0.0006162 0
1.875 -0.0006162 0
1.9 -0.0006162 0
1.925 -0.0006162 0
1.95 -0.0006162 0
1.975 -0.0006162 0
2 -0.0006162 0
2.025 -0.0006162 0
2.05 -0.0006162 0
2.075 -0.0006162 0
2.1 -0.0006162 0
2.125 -0.0006162 0
2.15 -0.0006162 0
2.175 -0.0006162 0
2.2 -0.0006162 0
2.225 -0.0006162 0
2.25 -0.0006162 0
2.275 -0.0006162 0
2.3 -0.0006162 0
2.325 -0.0006162 0
2.35 -0.0006162 0
2.375 -0.0006162 0
2.4 -0.0006162 0
2.425 -0.0006162 0
2.45 -0.0006162 0
2.475 -0.0006162 0
2.5 -0.0006162 0
0.024989 0.0246759 0
0.0499946 0.0245889 0
0.0749985 0.0245706 0
0.0999997 0.0245681 0
0.125 0.0245678 0
0.15 0.0245677 0
0.175 0.0245677 0
0.2 0.0245677 0
0.225 0.0245677 0
0.25 0.0245677 0
0.275 0.0245677 0
0.300001 0.0245672 0
0.325004 0.0245617 0
0.350013 0.0245292 0
0.375014 0.0244335 0
0.400005 0.0243938 0
0.425001 0.0243851 0
0.45 0.0243839 0
0.475 0.0243838 0
0.5 0.0243838 0
0.525 0.0243838 0
0.55 0.0243838 0
0.575 0.0243838 0
0.6 0.0243838 0
0.625 0.0243838 0
0.65 0.0243838 0
0.675 0.0243838 0
0.7 0.0243838 0
0.725 0.0243838 0
0.75 0.0243838 0
0.775 0.0243838 0
0.8 0.0243838 0
0.825 0.0243838 0
0.85 0.0243838 0
0.875 0.0243838 0
0.9 0.0243838 0
0.925 0.0243838 0
0.95 0.0243838 0
0.975 0.0243838 0
1 0.0243838 0
1.025 0.0243838 0
1.05 0.0243838 0
1.075 0.0243838 0
1.1 0.0243838 0
1.125 0.0243838 0
1.15 0.0243838 0
1.175 0.0243838 0
1.2 0.0243838 0
1.225 0.0243838 0
1.25 0.0243838 0
1.275 0.0243838 0
1.3 0.0243838 0
1.325 0.0243838 0
1.35 0.0243838 0
1.375 0.0243838 0
1.4 0.0243838 0
1.425 0.0243838 0
1.45 0.0243838 0
1.475 0.0243838 0
1.5 0.0243838 0
1.525 0.0243838 0
1.55 0.0243838 0
1.575 0.0243838 0
1.6 0.0243838 0
1.625 0.0243838 0
1.65 0.0243838 0
1.675 0.0243838 0
1.7 0.0243838 0
1.725 0.0243838 0
1.75 0.0243838 0
1.775 0.0243838 0
1.8 0.0243838 0
1.825 0.0243838 0
1.85 0.0243838 0
1.875 0.0243838 0
1.9 0.0243838 0
1.925 0.0243838 0
1.95 0.0243838 0
1.975 0.0243838 0
2 0.0243838 0
2.025 0.0243838 0
2.05 0.0243838 0
2.075 0.0243838 0
2.1 0.0243838 0
2.125 0.0243838 0
2.15 0.0243838 0
2.175 0.0243838 0
2.2 0.0243838 0
2.225 0.0243838 0
2.25 0.0243838 0
2.275 0.0243838 0
2.3 0.0243838 0
2.325 0.0243838 0
2.35 0.0243838 0
2.375 0.0243838 0
2.4 0.0243838 0
2.425 0.0243838 0
2.45 0.0243838 0
2.475 0.0243838 0
2.5 0.0243838 0
0.0249946 0.0495875 0
0.049997 0.0494699 0
0.074999 0.0494438 0
0.0999998 0.0494401 0
0.125 0.0494397 0
0.15 0.0494397 0
0.175 0.0494397 0
0.2 0.0494397 0
0.225 0.0494397 0
0.25 0.0494397 0
0.275 0.0494396 0
0.300001 0.0494391 0
0.325002 0.0494361 0
0.350006 0.0494241 0
0.375006 0.0494017 0
0.400003 0.0493885 0
0.425001 0.0493846 0
0.45 0.0493839 0
0.475 0.0493838 0
0.5 0.0493838 0
0.525 0.0493838 0
0.55 0.0493838 0
0.575 0.0493838 0
0.6 0.0493838 0
0.625 0.0493838 0
0.65 0.0493838 0
0.675 0.0493838 0
0.7 0.0493838 0
0.725 0.0493838 0
0.75 0.0493838 0
0.775 0.0493838 0
0.8 0.0493838 0
0.825 0.0493838 0
0.85 0.0493838 0
0.875 0.0493838 0
0.9 0.0493838 0
0.925 0.0493838 0
0.95 0.0493838 0
0.975 0.0493838 0
1 0.0493838 0
1.025 0.0493838 0
1.05 0.0493838 0
1.075 0.0493838 0
1.1 0.0493838 0
1.125 0.0493838 0
1.15 0.0493838 0
1.175 0.0493838 0
1.2 0.0493838 0
1.225 0.0493838 0
1.25 0.0493838 0
1.275 0.0493838 0
1.3 0.0493838 0
1.325 0.0493838 0
1.35 0.0493838 0
1.375 0.0493838 0
1.4 0.0493838 0
1.425 0.0493838 0
1.45 0.0493838 0
1.475 0.0493838 0
1.5 0.0493838 0
1.525 0.0493838 0
1.55 0.0493838 0
1.575 0.0493838 0
1.6 0.0493838 0
1.625 0.0493838 0
1.65 0.0493838 0
1.675 0.0493838 0
1.7 0.0493838 0
1.725 0.0493838 0
1.75 0.0493838 0
1.775 0.0493838 0
1.8 0.0493838 0
1.825 0.0493838 0
1.85 0.0493838 0
1.875 0.0493838 0
1.9 0.0493838 0
1.925 0.0493838 0
1.95 0.0493838 0
1.975 0.0493838 0
2 0.0493838 0
2.025 0.0493838 0
2.05 0.0493838 0
2.075 0.0493838 0
2.1 0.0493838 0
2.125 0.0493838 0
2.15 0.0493838 0
2.175 0.0493838 0
2.2 0.0493838 0
2.225 0.0493838 0
2.25 0.0493838 0
2.275 0.0493838 0
2.3 0.0493838 0
2.325 0.0493838 0
2.35 0.0493838 0
2.375 0.0493838 0
2.4 0.0493838 0
2.425 0.0493838 0
2.45 0.0493838 0
2.475 0.0493838 0
2.5 0.0493838 0
0.0249984 0.0745607 0
0.049999 0.0744319 0
0.0749997 0.0744024 0
0.0999999 0.0743981 0
0.125 0.0743976 0
0.15 0.0743975 0
0.175 0.0743975 0
0.2 0.0743975 0
0.225 0.0743975 0
0.25 0.0743975 0
0.275 0.0743975 0
0.3 0.0743972 0
0.325001 0.0743962 0
0.350002 0.0743932 0
0.375002 0.0743885 0
0.400001 0.0743854 0
0.425 0.0743842 0
0.45 0.0743839 0
0.475 0.0743838 0
0.5 0.0743838 0
0.525 0.0743838 0
0.55 0.0743838 0
0.575 0.0743838 0
0.6 0.0743838 0
0.625 0.0743838 0
0.65 0.0743838 0
0.675 0.0743838 0
0.7 0.0743838 0
0.725 0.0743838 0
0.75 0.0743838 0
0.775 0.0743838 0
0.8 0.0743838 0
0.825 0.0743838 0
0.85 0.0743838 0
0.875 0.0743838 0
0.9 0.0743838 0
0.925 0.0743838 0
0.95 0.0743838 0
0.975 0.0743838 0
1 0.0743838 0
1.025 0.0743838 0
1.05 0.0743838 0
1.075 0.0743838 0
1.1 0.0743838 0
1.125 0.0743838 0
1.15 0.0743838 0
1.175 0.0743838 0
1.2 0.0743838 0
1.225 0.0743838 0
1.25 0.0743838 0
1.275 0.0743838 0
1.3 0.0743838 0
1.325 0.0743838 0
1.35 0.0743838 0
1.375 0.0743838 0
1.4 0.0743838 0
1.425 0.0743838 0
1.45 0.0743838 0
1.475 0.0743838 0
1.5 0.0743838 0
1.525 0.0743838 0
1.55 0.0743838 0
1.575 0.0743838 0
1.6 0.0743838 0
1.625 0.0743838 0
1.65 0.0743838 0
1.675 0.0743838 0
1.7 0.0743838 0
1.725 0.0743838 0
1.75 0.0743838 0
1.775 0.0743838 0
1.8 0.0743838 0
1.825 0.0743838 0
1.85 0.0743838 0
1.875 0.0743838 0
1.9 0.0743838 0
1.925 0.0743838 0
1.95 0.0743838 0
1.975 0.0743838 0
2 0.0743838 0
2.025 0.0743838 0
2.05 0.0743838 0
2.075 0.0743838 0
2.1 0.0743838 0
2.125 0.0743838 0
2.15 0.0743838 0
2.175 0.0743838 0
2.2 0.0743838 0
2.225 0.0743838 0
2.25 0.0743838 0
2.275 0.0743838 0
2.3 0.0743838 0
2.325 0.0743838 0
2.35 0.0743838 0
2.375 0.0743838 0
2.4 0.0743838 0
2.425 0.0743838 0
2.45 0.0743838 0
2.475 0.0743838 0
2.5 0.0743838 0
0.0249996 0.099554 0
0.0499998 0.0994223 0
0.0749999 0.0993917 0
0.1 0.0993872 0
0.125 0.0993866 0
0.15 0.0993866 0
0.175 0.0993866 0
0.2 0.0993866 0
0.225 0.0993866 0
0.25 0.0993866 0
0.275 0.0993866 0
0.3 0.0993865 0
0.325 0.0993862 0
0.35 0.0993856 0
0.375 0.0993848 0
0.4 0.0993842 0
0.425 0.0993839 0
0.45 0.0993838 0
0.475 0.0993838 0
0.5 0.0993838 0
0.525 0.0993838 0
0.55 0.0993838 0
0.575 0.0993838 0
0.6 0.0993838 0
0.625 0.0993838 0
0.65 0.0993838 0
0.675 0.0993838 0
0.7 0.0993838 0
0.725 0.0993838 0
0.75 0.0993838 0
0.775 0.0993838 0
0.8 0.0993838 0
0.825 0.0993838 0
0.85 0.0993838 0
0.875 0.0993838 0
0.9 0.0993838 0
0.925 0.0993838 0
0.95 0.0993838 0
0.975 0.0993838 0
1 0.0993838 0
1.025 0.0993838 0
1.05 0.0993838 0
1.075 0.0993838 0
1.1 0.0993838 0
1.125 0.0993838 0
1.15 0.0993838 0
1.175 0.0993838 0
1.2 0.0993838 0
1.225 0.0993838 0
1.25 0.0993838 0
1.275 0.0993838 0
1.3 0.0993838 0
1.325 0.0993838 0
1.35 0.0993838 0
1.375 0.0993838 0
1.4 0.0993838 0
1.425 0.0993838 0
1.45 0.0993838 0
1.475 0.0993838 0
1.5 0.0993838 0
1.525 0.0993838 0
1.55 0.0993838 0
1.575 0.0993838 0
1.6 0.0993838 0
1.625 0.0993838 0
1.65 0.0993838 0
1.675 0.0993838 0
1.7 0.0993838 0
1.725 0.0993838 0
1.75 0.0993838 0
1.775 0.0993838 0
1.8 0.0993838 0
1.825 0.0993838 0
1.85 0.0993838 0
1.875 0.0993838 0
1.9 0.0993838 0
1.925 0.0993838 0
1.95 0.0993838 0
1.975 0.0993838 0
2 0.0993838 0
2.025 0.0993838 0
2.05 0.0993838 0
2.075 0.0993838 0
2.1 0.0993838 0
2.125 0.0993838 0
2.15 0.0993838 0
2.175 0.0993838 0
2.2 0.0993838 0
2.225 0.0993838 0
2.25 0.0993838 0
2.275 0.0993838 0
2.3 0.0993838 0
2.325 0.0993838 0
2.35 0.0993838 0
2.375 0.0993838 0
2.4 0.0993838 0
2.425 0.0993838 0
2.45 0.0993838 0
2.475 0.0993838 0
2.5 0.0993838 0
0.0249997 0.124552 0
0.0500001 0.12442 0
0.0750001 0.124389 0
0.1 0.124385 0
0.125 0.124384 0
0.15 0.124384 0
0.175 0.124384 0
0.2 0.124384 0
0.225 0.124384 0
0.25 0.124384 0
0.275 0.124384 0
0.3 0.124384 0
0.325 0.124384 0
0.35 0.124384 0
0.375 0.124384 0
0.4 0.124384 0
0.425 0.124384 0
0.45 0.124384 0
0.475 0.124384 0
0.5 0.124384 0
0.525 0.124384 0
0.55 0.124384 0
0.575 0.124384 0
0.6 0.124384 0
0.625 0.124384 0
0.65 0.124384 0
0.675 0.124384 0
0.7 0.124384 0
0.725 0.124384 0
0.75 0.124384 0
0.775 0.124384 0
0.8 0.124384 0
0.825 0.124384 0
0.85 0.124384 0
0.875 0.124384 0
0.9 0.124384 0
0.925 0.124384 0
0.95 0.124384 0
0.975 0.124384 0
1 0.124384 0
1.025 0.124384 0
1.05 0.124384 0
1.075 0.124384 0
1.1 0.124384 0
1.125 0.124384 0
1.15 0.124384 0
1.175 0.124384 0
1.2 0.124384 0
1.225 0.124384 0
1.25 0.124384 0
1.275 0.124384 0
1.3 0.124384 0
1.325 0.124384 0
1.35 0.124384 0
1.375 0.124384 0
1.4 0.124384 0
1.425 0.124384 0
1.45 0.124384 0
1.475 0.124384 0
1.5 0.124384 0
1.525 0.124384 0
1.55 0.124384 0
1.575 0.124384 0
1.6 0.124384 0
1.625 0.124384 0
1.65 0.124384 0
1.675 0.124384 0
1.7 0.124384 0
1.725 0.124384 0
1.75 0.124384 0
1.775 0.124384 0
1.8 0.124384 0
1.825 0.124384 0
1.85 0.124384 0
1.875 0.124384 0
1.9 0.124384 0
1.925 0.124384 0
1.95 0.124384 0
1.975 0.124384 0
2 0.124384 0
2.025 0.124384 0
2.05 0.124384 0
2.075 0.124384 0
2.1 0.124384 0
2.125 0.124384 0
2.15 0.124384 0
2.175 0.124384 0
2.2 0.124384 0
2.225 0.124384 0
2.25 0.124384 0
2.275 0.124384 0
2.3 0.124384 0
2.325 0.124384 0
2.35 0.124384 0
2.375 0.124384 0
2.4 0.124384 0
2.425 0.124384 0
2.45 0.124384 0
2.475 0.124384 0
2.5 0.124384 0
0.0249986 0.149547 0
0.0500008 0.149417 0
0.0750004 0.149388 0
0.1 0.149384 0
0.125 0.149384 0
0.15 0.149384 0
0.175 0.149384 0
0.2 0.149384 0
0.225 0.149384 0
0.25 0.149384 0
0.275 0.149384 0
0.3 0.149384 0
0.325 0.149384 0
0.35 0.149384 0
0.375 0.149384 0
0.4 0.149384 0
0.425 0.149384 0
0.45 0.149384 0
0.475 0.149384 0
0.5 0.149384 0
0.525 0.149384 0
0.55 0.149384 0
0.575 0.149384 0
0.6 0.149384 0
0.625 0.149384 0
0.65 0.149384 0
0.675 0.149384 0
0.7 0.149384 0
0.725 0.149384 0
0.75 0.149384 0
0.775 0.149384 0
0.8 0.149384 0
0.825 0.149384 0
0.85 0.149384 0
0.875 0.149384 0
0.9 0.149384 0
0.925 0.149384 0
0.95 0.149384 0
0.975 0.149384 0
1 0.149384 0
1.025 0.149384 0
1.05 0.149384 0
1.075 0.149384 0
1.1 0.149384 0
1.125 0.149384 0
1.15 0.149384 0
1.175 0.149384 0
1.2 0.149384 0
1.225 0.149384 0
1.25 0.149384 0
1.275 0.149384 0
1.3 0.149384 0
1.325 0.149384 0
1.35 0.149384 0
1.375 0.149384 0
1.4 0.149384 0
1.425 0.149384 0
1.45 0.149384 0
1.475 0.149384 0
1.5 0.149384 0
1.525 0.149384 0
1.55 0.149384 0
1.575 0.149384 0
1.6 0.149384 0
1.625 0.149384 0
1.65 0.149384 0
1.675 0.149384 0
1.7 0.149384 0
1.725 0.149384 0
1.75 0.149384 0
1.775 0.149384 0
1.8 0.149384 0
1.825 0.149384 0
1.85 0.149384 0
1.875 0.149384 0
1.9 0.149384 0
1.925 0.149384 0
1.95 0.149384 0
1.975 0.149384 0
2 0.149384 0
2.025 0.149384 0
2.05 0.149384 0
2.075 0.149384 0
2.1 0.149384 0
2.125 0.149384 0
2.15 0.149384 0
2.175 0.149384 0
2.2 0.149384 0
2.225 0.149384 0
2.25 0.149384 0
2.275 0.149384 0
2.3 0.149384 0
2.325 0.149384 0
2.35 0.149384 0
2.375 0.149384 0
2.4 0.149384 0
2.425 0.149384 0
2.45 0.149384 0
2.475 0.149384 0
2.5 0.149384 0
0.0249966 0.174532 0
0.0500019 0.174412 0
0.0750009 0.174388 0
0.1 0.174384 0
0.125 0.174384 0
0.15 0.174384 0
0.175 0.174384 0
0.2 0.174384 0
0.225 0.174384 0
0.25 0.174384 0
0.275 0.174384 0
0.3 0.174384 0
0.325 0.174384 0
0.35 0.174384 0
0.375 0.174384 0
0.4 0.174384 0
0.425 0.174384 0
0.45 0.174384 0
0.475 0.174384 0
0.5 0.174384 0
0.525 0.174384 0
0.55 0.174384 0
0.575 0.174384 0
0.6 0.174384 0
0.625 0.174384 0
0.65 0.174384 0
0.675 0.174384 0
0.7 0.174384 0
0.725 0.174384 0
0.75 0.174384 0
0.775 0.174384 0
0.8 0.174384 0
0.825 0.174384 0
0.85 0.174384 0
0.875 0.174384 0
0.9 0.174384 0
0.925 0.174384 0
0.95 0.174384 0
0.975 0.174384 0
1 0.174384 0
1.025 0.174384 0
1.05 0.174384 0
1.075 0.174384 0
1.1 0.174384 0
1.125 0.174384 0
1.15 0.174384 0
1.175 0.174384 0
1.2 0.174384 0
1.225 0.174384 0
1.25 0.174384 0
1.275 0.174384 0
1.3 0.174384 0
1.325 0.174384 0
1.35 0.174384 0
1.375 0.174384 0
1.4 0.174384 0
1.425 0.174384 0
1.45 0.174384 0
1.475 0.174384 0
1.5 0.174384 0
1.525 0.174384 0
1.55 0.174384 0
1.575 0.174384 0
1.6 0.174384 0
1.625 0.174384 0
1.65 0.174384 0
1.675 0.174384 0
1.7 0.174384 0
1.725 0.174384 0
1.75 0.174384 0
1.775 0.174384 0
1.8 0.174384 0
1.825 0.174384 0
1.85 0.174384 0
1.875 0.174384 0
1.9 0.174384 0
1.925 0.174384 0
1.95 0.174384 0
1.975 0.174384 0
2 0.174384 0
2.025 0.174384 0
2.05 0.174384 0
2.075 0.174384 0
2.1 0.174384 0
2.125 0.174384 0
2.15 0.174384 0
2.175 0.174384 0
2.2 0.174384 0
2.225 0.174384 0
2.25 0.174384 0
2.275 0.174384 0
2.3 0.174384 0
2.325 0.174384 0
2.35 0.174384 0
2.375 0.174384 0
2.4 0.174384 0
2.425 0.174384 0
2.45 0.174384 0
2.475 0.174384 0
2.5 0.174384 0
</DataArray>
</Points>
<PointData>
<DataArray NumberOfComponents='1' type='Int32' Name='Particle Type' format='ascii'>
0
0
0
0
0
0
0
0
0
0
0
0
0
0
0
0
0
0
0
0
0
0
1
1
1
1
1
1
1
1
1
1
1
1
1
1
1
1
1
1
1
1
1
1
1
1
1
1
1
1
1
1
1
1
1
1
1
1
1
1
1
1
1
1
1
1
1
1
1
1
1
1
1
1
1
1
1
1
1
1
1
1
1
1
1
1
1
1
1
1
1
1
1
1
1
1
1
1
1
1
1
1
1
1
1
1
1
1
1
1
1
1
1
1
1
1
1
1
1
1
1
1
1
1
1
1
1
1
1
1
1
1
1
1
1
1
1
1
1
1
1
1
1
1
1
1
1
1
1
1
1
1
1
1
1
1
1
1
1
1
1
1
1
1
1
1
1
1
1
1
1
1
1
1
1
1
1
1
1
1
1
1
1
1
1
1
1
1
1
1
1
1
1
1
1
1
1
1
1
1
1
1
1
1
1
1
1
1
1
1
1
1
1
1
1
1
1
1
1
1
1
1
1
1
1
1
1
1
1
1
1
1
1
1
1
1
1
1
1
1
1
1
1
1
1
1
1
1
1
1
1
1
1
1
1
1
1
1
1
1
1
1
1
1
1
1
1
1
1
1
1
1
1
1
1
1
1
1
1
1
1
1
1
1
1
1
1
1
1
1
1
1
1
1
1
1
1
1
1
1
1
1
1
1
1
1
1
1
1
1
1
1
1
1
1
1
1
1
1
1
1
1
1
1
1
1
1
1
1
1
1
1
1
1
1
1
1
1
1
1
1
1
1
1
1
1
1
1
1
1
1
1
1
1
1
1
1
1
1
1
1
1
1
1
1
1
1
1
1
1
1
1
1
1
1
1
1
1
1
1
1
1
1
1
1
1
1
1
1
1
1
1
1
1
1
1
1
1
1
1
1
1
1
1
1
1
1
1
1
1
1
1
1
1
1
1
1
1
1
1
1
1
1
1
1
1
1
1
1
1
1
1
1
1
1
1
1
1
1
1
1
1
1
1
1
1
1
1
1
1
1
1
1
1
1
1
1
1
1
1
1
1
1
1
1
1
1
1
1
1
1
1
1
1
1
1
1
1
1
1
1
1
1
1
1
1
1
1
1
1
1
1
1
1
1
1
1
1
1
1
1
1
1
1
1
1
1
1
1
1
1
1
1
1
1
1
1
1
1
1
1
1
1
1
1
1
1
1
1
1
1
1
1
1
1
1
1
1
1
1
1
1
1
1
1
1
1
1
1
1
1
1
1
1
1
1
1
1
1
1
1
1
1
1
1
1
1
1
1
1
1
1
1
1
1
1
1
1
1
1
1
1
1
1
1
1
1
1
1
1
1
1
1
1
1
1
1
1
1
1
1
1
1
1
1
1
1
1
1
1
1
1
1
1
1
1
1
1
1
1
1
1
1
1
1
1
1
1
1
1
1
1
1
1
1
1
1
1
1
1
1
1
1
1
1
1
1
1
1
1
1
1
1
1
1
1
1
1
1
1
1
1
1
1
1
1
1
1
1
1
1
1
1
1
1
1
1
1
1
1
1
1
1
1
1
1
1
1
1
1
1
1
1
1
1
1
1
1
1
1
1
1
1
1
1
1
1
1
1
1
1
1
1
1
1
1
1
1
1
1
1
1
1
1
1
1
1
1
1
1
1
1
1
1
1
1
1
1
1
1
1
1
1
1
1
1
1
1
1
1
1
1
1
1
1
1
1
1
1
1
1
1
1
1
1
1
1
1
1
1
1
1
1
1
1
1
1
1
1
1
1
1
1
1
1
1
1
1
1
1
1
1
1
1
1
1
1
1
1
1
1
1
1
1
1
1
1
1
</DataArray>
<DataArray NumberOfComponents='3' type='Float64' Name='Velocity' format='ascii'>
0 0 0
0 0 0
0 0 0
0 0 0
0 0 0
0 0 0
0 0 0
0 0 0
0 0 0
0 0 0
0 0 0
0 0 0
0 0 0
0 0 0
0 0 0
0 0 0
0 0 0
0 0 0
0 0 0
0 0 0
0 0 0
0 0 0
0.000745823 -0.010893 0
0.000228953 -0.0148412 0
5.25057e-05 -0.0156722 0
1.03868e-05 -0.0157879 0
1.86435e-06 -0.0157993 0
3.06623e-07 -0.0158 0
4.57706e-08 -0.0158 0
6.25255e-09 -0.0158 0
7.83472e-10 -0.0158 0
9.08375e-11 -0.0158 0
9.83918e-12 -0.0158 0
9.99653e-13 -0.0158 0
9.50865e-14 -0.0158 0
7.30914e-15 -0.0158 0
4.18824e-16 -0.0158 0
1.33116e-17 -0.0158 0
1.77012e-19 -0.0158 0
4.58779e-22 -0.0158 0
2.80192e-31 -0.0158 0
3.7744e-32 -0.0158 0
-3.78408e-34 -0.0158 0
-3.78193e-32 -0.0158 0
-2.82563e-31 -0.0158 0
2.81529e-31 -0.0158 0
1.61396e-33 -0.0158 0
-2.4395e-31 -0.0158 0
5.32879e-31 -0.0158 0
-4.94369e-31 -0.0158 0
4.92554e-31 -0.0158 0
-5.65327e-31 -0.0158 0
-1.56158e-34 -0.0158 0
5.65319e-31 -0.0158 0
-4.91673e-31 -0.0158 0
4.91862e-31 -0.0158 0
-5.65577e-31 -0.0158 0
3.1534e-34 -0.0158 0
5.65445e-31 -0.0158 0
-4.92713e-31 -0.0158 0
4.92152e-31 -0.0158 0
-5.67097e-31 -0.0158 0
4.56699e-35 -0.0158 0
5.66933e-31 -0.0158 0
-4.92817e-31 -0.0158 0
4.92554e-31 -0.0158 0
-5.65327e-31 -0.0158 0
-1.56158e-34 -0.0158 0
5.65326e-31 -0.0158 0
-4.91726e-31 -0.0158 0
4.91842e-31 -0.0158 0
-5.6691e-31 -0.0158 0
1.08738e-35 -0.0158 0
5.66933e-31 -0.0158 0
-4.92817e-31 -0.0158 0
4.92554e-31 -0.0158 0
-5.65327e-31 -0.0158 0
-1.56158e-34 -0.0158 0
5.65319e-31 -0.0158 0
-4.91673e-31 -0.0158 0
4.91862e-31 -0.0158 0
-5.65577e-31 -0.0158 0
3.1534e-34 -0.0158 0
5.65445e-31 -0.0158 0
-4.92713e-31 -0.0158 0
4.92105e-31 -0.0158 0
-5.73488e-31 -0.0158 0
-6.25721e-32 -0.0158 0
1.49133e-31 -0.0158 0
1.14236e-30 -0.0158 0
-1.14054e-30 -0.0158 0
-1.54931e-31 -0.0158 0
-7.25689e-34 -0.0158 0
1.52221e-31 -0.0158 0
1.14555e-30 -0.0158 0
-1.14224e-30 -0.0158 0
-1.5892e-31 -0.0158 0
5.07045e-33 -0.0158 0
1.54579e-31 -0.0158 0
1.14213e-30 -0.0158 0
-1.13993e-30 -0.0158 0
-1.54434e-31 -0.0158 0
-7.49612e-34 -0.0158 0
1.51943e-31 -0.0158 0
5.84037e-21 -0.0158 0
3.75077e-19 -0.0158 0
3.33227e-18 -0.0158 0
1.9294e-17 -0.0158 0
-0.000467076 -0.00288872 0
-0.000285199 -0.00609719 0
-0.000102469 -0.00713014 0
-2.53507e-05 -0.00732899 0
-4.83686e-06 -0.0073565 0
-7.66934e-07 -0.00735953 0
-1.01748e-07 -0.00735982 0
2.33735e-08 -0.00735984 0
2.4995e-07 -0.00735985 0
1.54683e-06 -0.00736011 0
8.43719e-06 -0.00736398 0
4.37926e-05 -0.00740302 0
0.000181646 -0.00771659 0
0.00055793 -0.00922055 0
0.000665371 -0.0131025 0
0.000288626 -0.0151322 0
8.45646e-05 -0.0156908 0
1.83067e-05 -0.0157871 0
3.27746e-06 -0.0157988 0
5.18615e-07 -0.0157999 0
7.42412e-08 -0.0158 0
9.78714e-09 -0.0158 0
1.19664e-09 -0.0158 0
1.36669e-10 -0.0158 0
1.46647e-11 -0.0158 0
1.48727e-12 -0.0158 0
1.42752e-13 -0.0158 0
1.12924e-14 -0.0158 0
6.5558e-16 -0.0158 0
2.15253e-17 -0.0158 0
3.42559e-19 -0.0158 0
2.25415e-21 -0.0158 0
6.11548e-31 -0.0158 0
7.98239e-32 -0.0158 0
-4.61116e-34 -0.0158 0
-7.60496e-32 -0.0158 0
-6.15662e-31 -0.0158 0
6.09544e-31 -0.0158 0
3.86672e-33 -0.0158 0
-5.29558e-31 -0.0158 0
1.1576e-30 -0.0158 0
-1.0769e-30 -0.0158 0
1.07099e-30 -0.0158 0
-1.22679e-30 -0.0158 0
-1.99969e-33 -0.0158 0
1.22629e-30 -0.0158 0
-1.07088e-30 -0.0158 0
1.07017e-30 -0.0158 0
-1.227e-30 -0.0158 0
5.05461e-33 -0.0158 0
1.22346e-30 -0.0158 0
-1.07054e-30 -0.0158 0
1.06709e-30 -0.0158 0
-1.22588e-30 -0.0158 0
3.54363e-33 -0.0158 0
1.2217e-30 -0.0158 0
-1.06935e-30 -0.0158 0
1.0712e-30 -0.0158 0
-1.22679e-30 -0.0158 0
-1.99969e-33 -0.0158 0
1.22629e-30 -0.0158 0
-1.07122e-30 -0.0158 0
1.07058e-30 -0.0158 0
-1.22644e-30 -0.0158 0
2.9521e-33 -0.0158 0
1.2217e-30 -0.0158 0
-1.06935e-30 -0.0158 0
1.0712e-30 -0.0158 0
-1.22679e-30 -0.0158 0
-1.99969e-33 -0.0158 0
1.22629e-30 -0.0158 0
-1.07088e-30 -0.0158 0
1.07017e-30 -0.0158 0
-1.227e-30 -0.0158 0
5.05461e-33 -0.0158 0
1.22346e-30 -0.0158 0
-1.07054e-30 -0.0158 0
1.06698e-30 -0.0158 0
-1.23834e-30 -0.0158 0
-1.28801e-31 -0.0158 0
3.0268e-31 -0.0158 0
2.47191e-30 -0.0158 0
-2.46971e-30 -0.0158 0
-3.17952e-31 -0.0158 0
-2.49825e-33 -0.0158 0
3.15036e-31 -0.0158 0
2.47405e-30 -0.0158 0
-2.47345e-30 -0.0158 0
-3.18883e-31 -0.0158 0
2.14662e-33 -0.0158 0
3.17539e-31 -0.0158 0
2.47132e-30 -0.0158 0
-2.46907e-30 -0.0158 0
-3.16204e-31 -0.0158 0
-2.22532e-33 -0.0158 0
7.55214e-23 -0.0158 0
9.95175e-21 -0.0158 0
6.82153e-19 -0.0158 0
5.87371e-18 -0.0158 0
4.31823e-17 -0.0158 0
-0.000296197 -0.00609941 0
-0.000187784 -0.0107442 0
-7.16137e-05 -0.0122494 0
-1.92499e-05 -0.0125421 0
-4.01919e-06 -0.0125819 0
-6.90171e-07 -0.012586 0
-9.66887e-08 -0.0125863 0
3.11086e-08 -0.0125864 0
3.01516e-07 -0.0125864 0
1.85586e-06 -0.012587 0
9.79702e-06 -0.0125919 0
4.41558e-05 -0.0126281 0
0.000147726 -0.012825 0
0.000324475 -0.0134935 0
0.000346444 -0.014696 0
0.000181564 -0.0154636 0
6.14724e-05 -0.0157306 0
1.49196e-05 -0.0157895 0
2.89897e-06 -0.0157987 0
4.81168e-07 -0.0157999 0
7.09016e-08 -0.0158 0
9.52115e-09 -0.0158 0
1.17953e-09 -0.0158 0
1.36205e-10 -0.0158 0
1.47702e-11 -0.0158 0
1.50864e-12 -0.0158 0
1.46128e-13 -0.0158 0
1.16518e-14 -0.0158 0
6.81935e-16 -0.0158 0
2.24729e-17 -0.0158 0
3.59274e-19 -0.0158 0
2.19517e-21 -0.0158 0
7.21912e-31 -0.0158 0
9.80989e-32 -0.0158 0
2.57926e-33 -0.0158 0
-9.63812e-32 -0.0158 0
-7.22491e-31 -0.0158 0
7.14073e-31 -0.0158 0
6.62934e-33 -0.0158 0
-6.33165e-31 -0.0158 0
1.36993e-30 -0.0158 0
-1.27372e-30 -0.0158 0
1.26779e-30 -0.0158 0
-1.45517e-30 -0.0158 0
-3.1833e-34 -0.0158 0
1.4557e-30 -0.0158 0
-1.26787e-30 -0.0158 0
1.26652e-30 -0.0158 0
-1.45677e-30 -0.0158 0
5.27814e-33 -0.0158 0
1.45211e-30 -0.0158 0
-1.26803e-30 -0.0158 0
1.26683e-30 -0.0158 0
-1.45423e-30 -0.0158 0
2.52489e-33 -0.0158 0
1.4532e-30 -0.0158 0
-1.26836e-30 -0.0158 0
1.26779e-30 -0.0158 0
-1.45517e-30 -0.0158 0
-3.1833e-34 -0.0158 0
1.45572e-30 -0.0158 0
-1.26738e-30 -0.0158 0
1.26714e-30 -0.0158 0
-1.45536e-30 -0.0158 0
2.00295e-33 -0.0158 0
1.45311e-30 -0.0158 0
-1.26836e-30 -0.0158 0
1.26779e-30 -0.0158 0
-1.45517e-30 -0.0158 0
-3.1833e-34 -0.0158 0
1.4557e-30 -0.0158 0
-1.26787e-30 -0.0158 0
1.26652e-30 -0.0158 0
-1.45677e-30 -0.0158 0
5.27814e-33 -0.0158 0
1.45211e-30 -0.0158 0
-1.26803e-30 -0.0158 0
1.26639e-30 -0.0158 0
-1.47075e-30 -0.0158 0
-1.50441e-31 -0.0158 0
3.6009e-31 -0.0158 0
2.91683e-30 -0.0158 0
-2.91806e-30 -0.0158 0
-3.75772e-31 -0.0158 0
-4.50671e-33 -0.0158 0
3.7766e-31 -0.0158 0
2.91826e-30 -0.0158 0
-2.91973e-30 -0.0158 0
-3.75815e-31 -0.0158 0
5.56738e-34 -0.0158 0
3.75558e-31 -0.0158 0
2.91805e-30 -0.0158 0
-2.92054e-30 -0.0158 0
-3.76372e-31 -0.0158 0
-2.58395e-33 -0.0158 0
-3.98824e-22 -0.0158 0
-8.06134e-21 -0.0158 0
6.8776e-19 -0.0158 0
6.51494e-18 -0.0158 0
5.21218e-17 -0.0158 0
-0.000109999 -0.00743911 0
-7.34845e-05 -0.0127049 0
-2.9599e-05 -0.0144371 0
-8.67927e-06 -0.0147822 0
-1.98034e-06 -0.0148303 0
-3.67591e-07 -0.0148353 0
-5.37432e-08 -0.0148357 0
2.50984e-08 -0.0148358 0
2.12672e-07 -0.0148358 0
1.21625e-06 -0.0148364 0
5.80606e-06 -0.0148399 0
2.21001e-05 -0.0148595 0
6.13677e-05 -0.0149382 0
0.000112419 -0.0151435 0
0.000116203 -0.0154543 0
6.79403e-05 -0.0156759 0
2.62327e-05 -0.0157685 0
7.32419e-06 -0.015794 0
1.60339e-06 -0.0157991 0
2.91296e-07 -0.0157999 0
4.59813e-08 -0.0158 0
6.50888e-09 -0.0158 0
8.40244e-10 -0.0158 0
1.00318e-10 -0.0158 0
1.11924e-11 -0.0158 0
1.17118e-12 -0.0158 0
1.14788e-13 -0.0158 0
9.12724e-15 -0.0158 0
5.26787e-16 -0.0158 0
1.62474e-17 -0.0158 0
2.19059e-19 -0.0158 0
9.77514e-22 -0.0158 0
6.44023e-31 -0.0158 0
9.24446e-32 -0.0158 0
-1.03953e-33 -0.0158 0
-8.82544e-32 -0.0158 0
-6.44559e-31 -0.0158 0
6.33324e-31 -0.0158 0
9.9767e-33 -0.0158 0
-5.48609e-31 -0.0158 0
1.2228e-30 -0.0158 0
-1.13617e-30 -0.0158 0
1.12783e-30 -0.0158 0
-1.31154e-30 -0.0158 0
4.88777e-34 -0.0158 0
1.3081e-30 -0.0158 0
-1.1294e-30 -0.0158 0
1.12924e-30 -0.0158 0
-1.3086e-30 -0.0158 0
2.36614e-33 -0.0158 0
1.3079e-30 -0.0158 0
-1.12568e-30 -0.0158 0
1.12801e-30 -0.0158 0
-1.30672e-30 -0.0158 0
2.22695e-33 -0.0158 0
1.30647e-30 -0.0158 0
-1.12707e-30 -0.0158 0
1.12783e-30 -0.0158 0
-1.31154e-30 -0.0158 0
4.88777e-34 -0.0158 0
1.3081e-30 -0.0158 0
-1.12945e-30 -0.0158 0
1.13105e-30 -0.0158 0
-1.30685e-30 -0.0158 0
2.36614e-33 -0.0158 0
1.30647e-30 -0.0158 0
-1.12707e-30 -0.0158 0
1.12783e-30 -0.0158 0
-1.31154e-30 -0.0158 0
4.88777e-34 -0.0158 0
1.3081e-30 -0.0158 0
-1.1294e-30 -0.0158 0
1.12924e-30 -0.0158 0
-1.3086e-30 -0.0158 0
2.36614e-33 -0.0158 0
1.3079e-30 -0.0158 0
-1.12568e-30 -0.0158 0
1.12745e-30 -0.0158 0
-1.32524e-30 -0.0158 0
-1.37597e-31 -0.0158 0
3.35909e-31 -0.0158 0
2.60674e-30 -0.0158 0
-2.60331e-30 -0.0158 0
-3.57173e-31 -0.0158 0
-2.75596e-33 -0.0158 0
3.55099e-31 -0.0158 0
2.60585e-30 -0.0158 0
-2.60545e-30 -0.0158 0
-3.53537e-31 -0.0158 0
6.95922e-35 -0.0158 0
3.54369e-31 -0.0158 0
2.60529e-30 -0.0158 0
-2.6006e-30 -0.0158 0
-3.57704e-31 -0.0158 0
-1.45981e-33 -0.0158 0
3.55934e-31 -0.0158 0
1.16694e-20 -0.0158 0
9.18582e-19 -0.0158 0
7.43518e-18 -0.0158 0
4.79156e-17 -0.0158 0
-3.23375e-05 -0.00786707 0
-2.07806e-05 -0.013334 0
-7.26181e-06 -0.0151435 0
-1.93921e-06 -0.0155083 0
-4.12698e-07 -0.01556 0
-7.43118e-08 -0.0155655 0
-9.20504e-09 -0.015566 0
1.5736e-08 -0.015566 0
1.02585e-07 -0.015566 0
5.23799e-07 -0.0155663 0
2.19413e-06 -0.015568 0
7.14369e-06 -0.015575 0
1.70072e-05 -0.0155975 0
2.78785e-05 -0.0156463 0
2.84117e-05 -0.0157137 0
1.80165e-05 -0.0157648 0
7.87343e-06 -0.0157894 0
2.52351e-06 -0.0157975 0
6.27353e-07 -0.0157995 0
1.27172e-07 -0.0157999 0
2.19728e-08 -0.0158 0
3.34473e-09 -0.0158 0
4.58062e-10 -0.0158 0
5.74563e-11 -0.0158 0
6.67925e-12 -0.0158 0
7.22704e-13 -0.0158 0
7.2576e-14 -0.0158 0
5.68853e-15 -0.0158 0
3.17896e-16 -0.0158 0
8.60995e-18 -0.0158 0
8.57065e-20 -0.0158 0
-1.29269e-30 -0.0158 0
1.29322e-30 -0.0158 0
1.679e-31 -0.0158 0
-2.98621e-33 -0.0158 0
-1.61899e-31 -0.0158 0
-1.29615e-30 -0.0158 0
1.27251e-30 -0.0158 0
2.11888e-32 -0.0158 0
-1.12032e-30 -0.0158 0
2.45213e-30 -0.0158 0
-2.28138e-30 -0.0158 0
2.27154e-30 -0.0158 0
-2.60919e-30 -0.0158 0
-6.26092e-34 -0.0158 0
2.60331e-30 -0.0158 0
-2.27479e-30 -0.0158 0
2.27296e-30 -0.0158 0
-2.60628e-30 -0.0158 0
6.33031e-33 -0.0158 0
2.60534e-30 -0.0158 0
-2.27492e-30 -0.0158 0
2.27372e-30 -0.0158 0
-2.60435e-30 -0.0158 0
4.61579e-33 -0.0158 0
2.59932e-30 -0.0158 0
-2.27047e-30 -0.0158 0
2.2721e-30 -0.0158 0
-2.60919e-30 -0.0158 0
-6.26092e-34 -0.0158 0
2.60331e-30 -0.0158 0
-2.27609e-30 -0.0158 0
2.27156e-30 -0.0158 0
-2.60097e-30 -0.0158 0
4.33742e-33 -0.0158 0
2.59932e-30 -0.0158 0
-2.27047e-30 -0.0158 0
2.2721e-30 -0.0158 0
-2.60919e-30 -0.0158 0
-6.26092e-34 -0.0158 0
2.60331e-30 -0.0158 0
-2.27479e-30 -0.0158 0
2.27296e-30 -0.0158 0
-2.60628e-30 -0.0158 0
6.33031e-33 -0.0158 0
2.60534e-30 -0.0158 0
-2.27492e-30 -0.0158 0
2.27305e-30 -0.0158 0
-2.6317e-30 -0.0158 0
-2.70122e-31 -0.0158 0
6.24313e-31 -0.0158 0
5.19415e-30 -0.0158 0
-5.19446e-30 -0.0158 0
-6.58723e-31 -0.0158 0
2.11641e-33 -0.0158 0
6.57857e-31 -0.0158 0
5.19526e-30 -0.0158 0
-5.19553e-30 -0.0158 0
-6.55736e-31 -0.0158 0
-2.00132e-33 -0.0158 0
6.55888e-31 -0.0158 0
5.1982e-30 -0.0158 0
-5.2004e-30 -0.0158 0
-6.57666e-31 -0.0158 0
4.11719e-33 -0.0158 0
3.98824e-22 -0.0158 0
4.22933e-20 -0.0158 0
1.51354e-18 -0.0158 0
1.20633e-17 -0.0158 0
8.97742e-17 -0.0158 0
-2.0873e-05 -0.00801939 0
1.09796e-06 -0.0135261 0
6.14065e-06 -0.0153338 0
2.96585e-06 -0.0156948 0
8.55677e-07 -0.0157456 0
1.7747e-07 -0.015751 0
3.08152e-08 -0.0157514 0
1.11258e-08 -0.0157514 0
3.71497e-08 -0.0157515 0
1.64895e-07 -0.0157516 0
6.02827e-07 -0.0157521 0
1.71819e-06 -0.015754 0
3.65554e-06 -0.0157591 0
5.54872e-06 -0.0157689 0
5.61714e-06 -0.0157816 0
3.7958e-06 -0.0157917 0
1.83225e-06 -0.0157971 0
6.61302e-07 -0.0157992 0
1.86031e-07 -0.0157998 0
4.24021e-08 -0.0158 0
8.11982e-09 -0.0158 0
1.34724e-09 -0.0158 0
1.98365e-10 -0.0158 0
2.64593e-11 -0.0158 0
3.23807e-12 -0.0158 0
3.6766e-13 -0.0158 0
3.69556e-14 -0.0158 0
2.8921e-15 -0.0158 0
1.54085e-16 -0.0158 0
3.64134e-18 -0.0158 0
4.37796e-20 -0.0158 0
3.98824e-22 -0.0158 0
1.00956e-30 -0.0158 0
1.2135e-31 -0.0158 0
7.61165e-36 -0.0158 0
-1.30561e-31 -0.0158 0
-9.97321e-31 -0.0158 0
9.7711e-31 -0.0158 0
1.28286e-32 -0.0158 0
-8.5432e-31 -0.0158 0
1.89552e-30 -0.0158 0
-1.77221e-30 -0.0158 0
1.75465e-30 -0.0158 0
-2.02785e-30 -0.0158 0
4.27313e-33 -0.0158 0
2.03457e-30 -0.0158 0
-1.75937e-30 -0.0158 0
1.75672e-30 -0.0158 0
-2.03063e-30 -0.0158 0
2.53142e-33 -0.0158 0
2.0241e-30 -0.0158 0
-1.75784e-30 -0.0158 0
1.76628e-30 -0.0158 0
-2.03239e-30 -0.0158 0
4.84536e-33 -0.0158 0
2.03608e-30 -0.0158 0
-1.75825e-30 -0.0158 0
1.75576e-30 -0.0158 0
-2.02785e-30 -0.0158 0
4.27313e-33 -0.0158 0
2.03401e-30 -0.0158 0
-1.76159e-30 -0.0158 0
1.75457e-30 -0.0158 0
-2.02568e-30 -0.0158 0
9.29926e-33 -0.0158 0
2.03608e-30 -0.0158 0
-1.75825e-30 -0.0158 0
1.75576e-30 -0.0158 0
-2.02785e-30 -0.0158 0
4.27313e-33 -0.0158 0
2.03457e-30 -0.0158 0
-1.75937e-30 -0.0158 0
1.75672e-30 -0.0158 0
-2.03063e-30 -0.0158 0
2.53142e-33 -0.0158 0
2.0241e-30 -0.0158 0
-1.75784e-30 -0.0158 0
1.76524e-30 -0.0158 0
-2.0543e-30 -0.0158 0
-2.08136e-31 -0.0158 0
4.98342e-31 -0.0158 0
4.04094e-30 -0.0158 0
-4.03936e-30 -0.0158 0
-5.36938e-31 -0.0158 0
-2.55534e-34 -0.0158 0
5.35835e-31 -0.0158 0
4.04358e-30 -0.0158 0
-4.04886e-30 -0.0158 0
-5.24376e-31 -0.0158 0
-3.95697e-33 -0.0158 0
5.26486e-31 -0.0158 0
4.04831e-30 -0.0158 0
-4.03296e-30 -0.0158 0
-5.31508e-31 -0.0158 0
-3.31107e-33 -0.0158 0
1.2389e-22 -0.0158 0
2.78806e-20 -0.0158 0
1.35591e-18 -0.0158 0
1.07455e-17 -0.0158 0
7.23598e-17 -0.0158 0
-6.44176e-05 -0.00823449 0
2.5126e-05 -0.0136929 0
2.64241e-05 -0.0154108 0
9.6425e-06 -0.0157408 0
2.32325e-06 -0.015786 0
4.2799e-07 -0.0157907 0
6.63256e-08 -0.0157911 0
1.10339e-08 -0.0157911 0
1.12548e-08 -0.0157911 0
4.07299e-08 -0.0157912 0
1.31508e-07 -0.0157913 0
3.35784e-07 -0.0157917 0
6.55599e-07 -0.0157927 0
9.42198e-07 -0.0157944 0
9.50386e-07 -0.0157966 0
6.73055e-07 -0.0157983 0
3.51009e-07 -0.0157994 0
1.40072e-07 -0.0157998 0
4.41196e-08 -0.0158 0
1.12762e-08 -0.0158 0
2.40236e-09 -0.0158 0
4.37989e-10 -0.0158 0
7.00089e-11 -0.0158 0