<?xml version='1.0' encoding='UTF-8'?>
<VTKFile byte_order='LittleEndian' version='0.1' type = 'UnstructuredGrid'>
<UnstructuredGrid>
<FieldData>
<DataArray type='Float64' Name='Time' NumberOfComponents='1' NumberOfTuples='1' format='ascii'>
2.801
</DataArray>
</FieldData>
<Piece NumberOfCells='808' NumberOfPoints='808'>
<Points>
<DataArray NumberOfComponents='3' type='Float64' Name='position' format='ascii'>
0 0 0
0 0.025 0
0 0.05 0
0 0.075 0
0 0.1 0
0 0.125 0
0 0.15 0
0 0.175 0
0.025 0 0
0.05 0 0
0.075 0 0
0.1 0 0
0.125 0 0
0.15 0 0
0.175 0 0
0.2 0 0
0.225 0 0
0.25 0 0
0.274809 -0.000377111 0
0.298216 -0.00202908 0
0.32293 -0.00813638 0
0.339353 -0.00855321 0
0.375771 -0.0531331 0
0.398925 -0.0769668 0
0.424534 -0.0999306 0
0.454607 -0.119735 0
0.477009 -0.13397 0
0.501696 -0.152537 0
0.525923 -0.164601 0
0.549652 -0.187286 0
0.578768 -0.200957 0
0.601105 -0.211961 0
0.625532 -0.231229 0
0.650882 -0.244018 0
0.675004 -0.257404 0
0.698474 -0.27504 0
0.727766 -0.29168 0
0.753291 -0.3025 0
0.770819 -0.314052 0
0.800823 -0.330166 0
0.828443 -0.343006 0
0.847695 -0.355122 0
0.876384 -0.370497 0
0.903235 -0.383026 0
0.923733 -0.393441 0
0.949088 -0.406236 0
0.975801 -0.419236 0
1.00011 -0.431196 0
1.02455 -0.443293 0
1.04958 -0.454648 0
1.07525 -0.465797 0
1.10001 -0.477995 0
1.12359 -0.489663 0
1.1494 -0.499726 0
1.17645 -0.510188 0
1.20062 -0.521306 0
1.22379 -0.531055 0
1.24945 -0.539842 0
1.27596 -0.549672 0
1.30094 -0.560111 0
1.32518 -0.569816 0
1.34994 -0.5791 0
1.37535 -0.588318 0
1.40094 -0.596894 0
1.42596 -0.60495 0
1.45008 -0.613325 0
1.47399 -0.622122 0
1.49881 -0.630733 0
1.52466 -0.63893 0
1.55051 -0.646939 0
1.57542 -0.654704 0
1.59957 -0.661954 0
1.62391 -0.66875 0
1.64902 -0.675422 0
1.67458 -0.6821 0
1.70002 -0.68863 0
1.7251 -0.694854 0
1.75 -0.700743 0
1.77498 -0.706282 0
1.80009 -0.71143 0
1.82523 -0.716229 0
1.85036 -0.720789 0
1.87551 -0.72522 0
1.90069 -0.729633 0
1.92588 -0.734128 0
1.95103 -0.7387 0
1.97611 -0.743256 0
2.00106 -0.747686 0
2.0259 -0.751917 0
2.05066 -0.755914 0
2.07542 -0.759655 0
2.10026 -0.763118 0
2.1252 -0.766281 0
2.15027 -0.769135 0
2.17542 -0.771688 0
2.20062 -0.773959 0
2.22584 -0.775963 0
2.25105 -0.777704 0
2.27625 -0.779183 0
2.30143 -0.780399 0
2.32661 -0.781365 0
2.35177 -0.782102 0
2.37691 -0.782644 0
2.40204 -0.783029 0
2.42714 -0.783293 0
2.45222 -0.783467 0
2.47727 -0.783574 0
2.50229 -0.78363 0
0.0259358 0.0233444 0
0.0494664 0.0184926 0
0.0731584 0.0218067 0
0.0992648 0.0209378 0
0.124809 0.0188859 0
0.14879 0.021716 0
0.17254 0.0194016 0
0.201511 0.0156061 0
0.225826 0.022582 0
0.245555 0.0130119 0
0.267508 0.0226625 0
0.30589 0.00468625 0
0.319499 0.00125646 0
0.348384 -0.01316 0
0.371357 -0.0326564 0
0.40602 -0.0579552 0
0.427881 -0.0725779 0
0.448028 -0.0894486 0
0.477796 -0.113233 0
0.503694 -0.128977 0
0.526874 -0.145515 0
0.552453 -0.160757 0
0.575913 -0.174708 0
0.601155 -0.190815 0
0.623691 -0.206337 0
0.649012 -0.223266 0
0.680458 -0.238375 0
0.700249 -0.245326 0
0.720818 -0.260015 0
0.751528 -0.278206 0
0.777036 -0.293384 0
0.801395 -0.306922 0
0.825787 -0.317398 0
0.848437 -0.330916 0
0.875378 -0.345747 0
0.901487 -0.357431 0
0.924511 -0.369349 0
0.949994 -0.382921 0
0.976171 -0.395152 0
1.00003 -0.406384 0
1.02398 -0.418502 0
1.0494 -0.430275 0
1.07512 -0.441781 0
1.10014 -0.453623 0
1.12441 -0.464993 0
1.14933 -0.475363 0
1.17522 -0.485579 0
1.20031 -0.496151 0
1.22461 -0.50638 0
1.24975 -0.515947 0
1.27556 -0.525588 0
1.30077 -0.535428 0
1.3253 -0.545037 0
1.34999 -0.554441 0
1.37527 -0.563599 0
1.40076 -0.572108 0
1.42575 -0.580242 0
1.45005 -0.588696 0
1.47427 -0.597523 0
1.49917 -0.6062 0
1.5247 -0.614391 0
1.55016 -0.622165 0
1.57506 -0.629701 0
1.59955 -0.636989 0
1.62415 -0.643969 0
1.64918 -0.650745 0
1.67455 -0.657408 0
1.6999 -0.663862 0
1.72503 -0.670001 0
1.75 -0.675848 0
1.775 -0.681401 0
1.80009 -0.686582 0
1.82523 -0.691394 0
1.85037 -0.695955 0
1.87553 -0.700402 0
1.9007 -0.704831 0
1.92588 -0.709318 0
1.95102 -0.713851 0
1.97607 -0.718346 0
2.00102 -0.722716 0
2.02587 -0.726906 0
2.05065 -0.730888 0
2.07544 -0.734639 0
2.10028 -0.738125 0
2.12523 -0.741314 0
2.15029 -0.744189 0
2.17543 -0.746754 0
2.20062 -0.749027 0
2.22583 -0.751025 0
2.25104 -0.752758 0
2.27624 -0.754228 0
2.30143 -0.755438 0
2.32661 -0.756399 0
2.35177 -0.757133 0
2.37691 -0.757671 0
2.40204 -0.758052 0
2.42714 -0.75831 0
2.45221 -0.758478 0
2.47726 -0.758578 0
2.50228 -0.758628 0
0.0229002 0.050336 0
0.0488703 0.0501257 0
0.0745612 0.0484802 0
0.0977037 0.0453668 0
0.124384 0.0468389 0
0.150002 0.0472079 0
0.172292 0.0504268 0
0.197611 0.0369194 0
0.230285 0.0438051 0
0.251105 0.032365 0
0.275911 0.0340597 0
0.299542 0.0346318 0
0.324638 0.0180005 0
0.361302 -0.00184429 0
0.375781 -0.0167893 0
0.401686 -0.0288712 0
0.426237 -0.0548487 0
0.450331 -0.0712548 0
0.476838 -0.0918714 0
0.503757 -0.105753 0
0.523496 -0.120967 0
0.551363 -0.138481 0
0.576651 -0.147638 0
0.5999 -0.172062 0
0.629748 -0.183273 0
0.651508 -0.192051 0
0.673083 -0.209504 0
0.700412 -0.225551 0
0.72718 -0.240275 0
0.750561 -0.252036 0
0.773835 -0.265923 0
0.80125 -0.281584 0
0.826492 -0.293754 0
0.849066 -0.306328 0
0.874939 -0.320569 0
0.900819 -0.332569 0
0.924836 -0.345223 0
0.950272 -0.358739 0
0.975825 -0.370395 0
0.999843 -0.381362 0
1.02412 -0.393605 0
1.04944 -0.406085 0
1.07499 -0.41742 0
1.10022 -0.428652 0
1.12476 -0.439987 0
1.14922 -0.450676 0
1.17464 -0.460799 0
1.20021 -0.471117 0
1.225 -0.481525 0
1.24986 -0.491645 0
1.27538 -0.501319 0
1.30071 -0.510673 0
1.32536 -0.519988 0
1.35001 -0.529437 0
1.37523 -0.538672 0
1.40064 -0.547273 0
1.42561 -0.555483 0
1.45006 -0.563961 0
1.47452 -0.572805 0
1.49944 -0.581446 0
1.52471 -0.589508 0
1.5499 -0.597179 0
1.57479 -0.604683 0
1.59949 -0.611989 0
1.62428 -0.61905 0
1.6493 -0.625895 0
1.67455 -0.632548 0
1.69984 -0.638979 0
1.72498 -0.645076 0
1.75 -0.650868 0
1.77501 -0.656446 0
1.8001 -0.661688 0
1.82524 -0.666521 0
1.85038 -0.671088 0
1.87554 -0.675547 0
1.90071 -0.679983 0
1.92588 -0.684453 0
1.95101 -0.688941 0
1.97605 -0.693378 0
2.001 -0.697697 0
2.02584 -0.701859 0
2.05064 -0.70584 0
2.07544 -0.709609 0
2.1003 -0.713122 0
2.12525 -0.716337 0
2.15031 -0.719232 0
2.17545 -0.721809 0
2.20063 -0.724085 0
2.22584 -0.72608 0
2.25104 -0.727808 0
2.27624 -0.729272 0
2.30143 -0.730476 0
2.32661 -0.731433 0
2.35177 -0.732163 0
2.37691 -0.732697 0
2.40204 -0.733072 0
2.42714 -0.733324 0
2.45221 -0.733485 0
2.47726 -0.733579 0
2.50228 -0.733626 0
0.022859 0.0716219 0
0.0510826 0.0698343 0
0.0748289 0.0713435 0
0.0973879 0.0640093 0
0.124492 0.0698825 0
0.150754 0.0591034 0
0.172884 0.0654191 0
0.194933 0.0595996 0
0.223921 0.0579026 0
0.242586 0.0594878 0
0.273928 0.0489099 0
0.306218 0.0425045 0
0.325631 0.0336265 0
0.355377 0.0252022 0
0.375821 0.0019264 0
0.404825 -0.0147245 0
0.427823 -0.0249363 0
0.455288 -0.0484762 0
0.477812 -0.0589656 0
0.502686 -0.0770431 0
0.524458 -0.0921517 0
0.552107 -0.113782 0
0.578421 -0.125815 0
0.597889 -0.139302 0
0.626385 -0.158789 0
0.652975 -0.169884 0
0.673355 -0.186011 0
0.701099 -0.202725 0
0.728701 -0.215619 0
0.749273 -0.228338 0
0.773483 -0.241525 0
0.801473 -0.255004 0
0.825341 -0.267224 0
0.849112 -0.282549 0
0.876183 -0.297091 0
0.901445 -0.307403 0
0.924561 -0.320082 0
0.949373 -0.334118 0
0.975035 -0.345239 0
0.999916 -0.356525 0
1.02475 -0.369533 0
1.04969 -0.381601 0
1.07465 -0.392395 0
1.09996 -0.403667 0
1.12488 -0.414935 0
1.14935 -0.425797 0
1.17459 -0.436337 0
1.20022 -0.446327 0
1.22508 -0.456526 0
1.24981 -0.467064 0
1.27524 -0.476856 0
1.30065 -0.485824 0
1.32541 -0.494973 0
1.35009 -0.504488 0
1.37523 -0.513745 0
1.40053 -0.522369 0
1.42551 -0.530728 0
1.45013 -0.539315 0
1.47474 -0.548052 0
1.4996 -0.556516 0
1.52467 -0.564511 0
1.54972 -0.572175 0
1.57461 -0.579692 0
1.59943 -0.587046 0
1.62433 -0.594132 0
1.64937 -0.600968 0
1.67457 -0.607645 0
1.6998 -0.614079 0
1.72494 -0.620132 0
1.74999 -0.625905 0
1.77502 -0.63151 0
1.80011 -0.636793 0
1.82524 -0.641649 0
1.85039 -0.646224 0
1.87556 -0.650688 0
1.90073 -0.655123 0
1.92589 -0.659568 0
1.95101 -0.664007 0
1.97604 -0.668387 0
2.00097 -0.672661 0
2.02582 -0.676804 0
2.05062 -0.680793 0
2.07543 -0.684587 0
2.1003 -0.688131 0
2.12526 -0.691372 0
2.15032 -0.694285 0
2.17546 -0.696871 0
2.20064 -0.69915 0
2.22584 -0.701144 0
2.25104 -0.702867 0
2.27624 -0.704326 0
2.30143 -0.705525 0
2.32661 -0.706477 0
2.35177 -0.707201 0
2.37692 -0.707728 0
2.40204 -0.708096 0
2.42714 -0.70834 0
2.45221 -0.708494 0
2.47726 -0.708582 0
2.50228 -0.708624 0
0.0241161 0.0978355 0
0.0495298 0.0982379 0
0.0720579 0.101399 0
0.0983986 0.0948868 0
0.123018 0.0981673 0
0.148934 0.0941064 0
0.177446 0.0939954 0
0.197822 0.0883025 0
0.228831 0.0881291 0
0.253184 0.0770281 0
0.27253 0.0804006 0
0.304918 0.0607479 0
0.32546 0.0522465 0
0.357877 0.0398804 0
0.377173 0.0222342 0
0.403094 0.0106051 0
0.429063 -0.00221015 0
0.452148 -0.0305562 0
0.476837 -0.0295024 0
0.502935 -0.053424 0
0.526958 -0.0726268 0
0.553041 -0.0869613 0
0.576325 -0.0985685 0
0.599304 -0.116071 0
0.625334 -0.135428 0
0.652648 -0.146106 0
0.675573 -0.162489 0
0.699847 -0.175592 0
0.725765 -0.187602 0
0.749601 -0.204953 0
0.775794 -0.219919 0
0.802033 -0.230319 0
0.82484 -0.24225 0
0.849045 -0.25816 0
0.875854 -0.270854 0
0.901169 -0.282315 0
0.924849 -0.295931 0
0.949122 -0.308407 0
0.974482 -0.320451 0
1.00014 -0.332788 0
1.02506 -0.344898 0
1.04957 -0.3566 0
1.0744 -0.367428 0
1.09961 -0.378475 0
1.12485 -0.390161 0
1.14979 -0.401426 0
1.17486 -0.411728 0
1.20009 -0.42145 0
1.22496 -0.431705 0
1.24978 -0.442326 0
1.27511 -0.452065 0
1.30053 -0.460998 0
1.32548 -0.470126 0
1.35023 -0.479603 0
1.37526 -0.488854 0
1.40046 -0.497564 0
1.42546 -0.506016 0
1.45019 -0.514602 0
1.47486 -0.523226 0
1.49966 -0.531539 0
1.5246 -0.539481 0
1.54959 -0.547223 0
1.57451 -0.554802 0
1.59938 -0.562128 0
1.62432 -0.569186 0
1.64939 -0.576042 0
1.67457 -0.582743 0
1.69977 -0.58917 0
1.72492 -0.595203 0
1.74999 -0.600978 0
1.77504 -0.6066 0
1.80012 -0.611907 0
1.82524 -0.616785 0
1.8504 -0.621371 0
1.87557 -0.625837 0
1.90074 -0.630263 0
1.9259 -0.634679 0
1.95101 -0.639068 0
1.97604 -0.643393 0
2.00096 -0.647628 0
2.02581 -0.651758 0
2.05061 -0.655759 0
2.07542 -0.659581 0
2.1003 -0.663156 0
2.12526 -0.666424 0
2.15032 -0.669353 0
2.17546 -0.671947 0
2.20064 -0.674226 0
2.22584 -0.676218 0
2.25104 -0.677937 0
2.27624 -0.679391 0
2.30144 -0.680586 0
2.32661 -0.681531 0
2.35178 -0.682247 0
2.37692 -0.682767 0
2.40204 -0.683125 0
2.42714 -0.68336 0
2.45221 -0.683504 0
2.47726 -0.683585 0
2.50229 -0.683623 0
0.0229449 0.125501 0
0.0487699 0.126682 0
0.075082 0.122049 0
0.0967908 0.125749 0
0.120662 0.121104 0
0.147264 0.111142 0
0.179777 0.119536 0
0.195629 0.11155 0
0.231572 0.115266 0
0.252153 0.0954065 0
0.274841 0.101313 0
0.30229 0.0900793 0
0.327794 0.082023 0
0.354864 0.0646587 0
0.378543 0.0533668 0
0.404893 0.0356265 0
0.429996 0.0176476 0
0.450934 0.00069231 0
0.478508 -0.0128522 0
0.503282 -0.0313602 0
0.524604 -0.0515929 0
0.551689 -0.0567976 0
0.57629 -0.0818333 0
0.60211 -0.0975093 0
0.627456 -0.102508 0
0.65023 -0.119603 0
0.67521 -0.139943 0
0.700902 -0.151644 0
0.72617 -0.163796 0
0.750327 -0.178179 0
0.775021 -0.193339 0
0.801098 -0.207754 0
0.826066 -0.220232 0
0.84982 -0.232429 0
0.87455 -0.244239 0
0.899905 -0.257076 0
0.924965 -0.271308 0
0.949906 -0.284153 0
0.974856 -0.295695 0
0.999915 -0.308281 0
1.02481 -0.320059 0
1.04937 -0.331499 0
1.07425 -0.342607 0
1.09956 -0.353707 0
1.12482 -0.365617 0
1.14999 -0.37697 0
1.17509 -0.387013 0
1.19999 -0.396584 0
1.22478 -0.40686 0
1.24977 -0.417543 0
1.27511 -0.427229 0
1.30044 -0.436115 0
1.32545 -0.445329 0
1.35034 -0.454865 0
1.37536 -0.464057 0
1.40045 -0.47277 0
1.42542 -0.481295 0
1.45021 -0.489821 0
1.4749 -0.498281 0
1.49966 -0.50652 0
1.52455 -0.514518 0
1.54951 -0.522345 0
1.57445 -0.529942 0
1.59936 -0.537204 0
1.62431 -0.544223 0
1.64937 -0.551129 0
1.67454 -0.557857 0
1.69974 -0.56426 0
1.72491 -0.570293 0
1.75001 -0.576079 0
1.77506 -0.581703 0
1.80012 -0.587021 0
1.82524 -0.591919 0
1.8504 -0.596519 0
1.87557 -0.600985 0
1.90075 -0.605397 0
1.9259 -0.609783 0
1.95101 -0.614128 0
1.97604 -0.618404 0
2.00097 -0.622601 0
2.0258 -0.626718 0
2.05059 -0.630732 0
2.0754 -0.634585 0
2.10028 -0.638195 0
2.12525 -0.64149 0
2.15032 -0.644435 0
2.17546 -0.647034 0
2.20064 -0.649314 0
2.22584 -0.651303 0
2.25105 -0.653018 0
2.27625 -0.654468 0
2.30144 -0.655657 0
2.32662 -0.656595 0
2.35178 -0.657303 0
2.37693 -0.657812 0
2.40205 -0.658159 0
2.42715 -0.658383 0
2.45222 -0.658518 0
2.47727 -0.658591 0
2.50229 -0.658624 0
0.0249482 0.146687 0
0.0501794 0.143552 0
0.0737496 0.140398 0
0.0964351 0.1382 0
0.122269 0.139262 0
0.153594 0.135814 0
0.173561 0.134435 0
0.198629 0.127295 0
0.219331 0.120315 0
0.25203 0.123041 0
0.28118 0.112815 0
0.304063 0.106543 0
0.330894 0.0916077 0
0.351373 0.0890667 0
0.38227 0.0670627 0
0.403553 0.0607253 0
0.43183 0.0355576 0
0.452357 0.0316163 0
0.4793 0.00574937 0
0.501622 -0.00508454 0
0.525706 -0.0137618 0
0.55186 -0.0353971 0
0.574267 -0.0442637 0
0.600576 -0.0685635 0
0.627628 -0.0906585 0
0.651602 -0.0962486 0
0.676064 -0.110821 0
0.701845 -0.129702 0
0.726961 -0.139589 0
0.749928 -0.152619 0
0.773851 -0.168874 0
0.800464 -0.182201 0
0.826313 -0.194777 0
0.850142 -0.208098 0
0.874258 -0.220395 0
0.899659 -0.232604 0
0.925021 -0.246498 0
0.950004 -0.259679 0
0.974913 -0.27114 0
0.999686 -0.282657 0
1.02452 -0.295218 0
1.04943 -0.307137 0
1.07441 -0.318069 0
1.09957 -0.329353 0
1.12475 -0.341137 0
1.14989 -0.352191 0
1.17499 -0.362227 0
1.19992 -0.3719 0
1.22477 -0.382202 0
1.24984 -0.392745 0
1.27515 -0.402404 0
1.30036 -0.411356 0
1.32536 -0.420559 0
1.35038 -0.430141 0
1.37549 -0.439425 0
1.40051 -0.448094 0
1.42538 -0.456509 0
1.45016 -0.464969 0
1.4749 -0.473337 0
1.49965 -0.481535 0
1.5245 -0.489655 0
1.54944 -0.497578 0
1.57442 -0.505103 0
1.59935 -0.512283 0
1.62429 -0.519307 0
1.64932 -0.526248 0
1.67448 -0.533013 0
1.69972 -0.539411 0
1.72493 -0.545415 0
1.75003 -0.551208 0
1.77507 -0.556838 0
1.80012 -0.562142 0
1.82523 -0.567054 0
1.85039 -0.571679 0
1.87558 -0.576142 0
1.90075 -0.580537 0
1.92591 -0.584898 0
1.95102 -0.589207 0
1.97605 -0.593438 0
2.00098 -0.597597 0
2.02581 -0.601697 0
2.05058 -0.605723 0
2.07538 -0.609607 0
2.10025 -0.613252 0
2.12523 -0.616576 0
2.1503 -0.619536 0
2.17545 -0.62214 0
2.20064 -0.624417 0
2.22584 -0.626401 0
2.25105 -0.628112 0
2.27625 -0.629557 0
2.30144 -0.63074 0
2.32662 -0.63167 0
2.35179 -0.632368 0
2.37693 -0.632865 0
2.40206 -0.6332 0
2.42716 -0.633412 0
2.45223 -0.633535 0
2.47728 -0.6336 0
2.5023 -0.633628 0
0.0235898 0.174764 0
0.04686 0.174471 0
0.0731567 0.174332 0
0.0980847 0.176922 0
0.125139 0.174284 0
0.145792 0.175854 0
0.175522 0.168661 0
0.198556 0.168337 0
0.225148 0.164681 0
0.253356 0.152632 0
0.274643 0.143323 0
0.304074 0.133615 0
0.326767 0.125207 0
0.354627 0.108016 0
0.379527 0.0990369 0
0.402029 0.0792207 0
0.42843 0.0695713 0
0.454094 0.0518541 0
0.476678 0.0346405 0
0.503955 0.0205535 0
0.527464 0.00215133 0
0.55093 -0.0156158 0
0.577175 -0.0286799 0
0.60042 -0.0404754 0
0.62645 -0.05667 0
0.652311 -0.0737757 0
0.675168 -0.0877722 0
0.699941 -0.10246 0
0.72598 -0.117027 0
0.750768 -0.131317 0
0.77489 -0.144147 0
0.799839 -0.154939 0
0.825384 -0.168836 0
0.850243 -0.185191 0
0.874849 -0.197885 0
0.900071 -0.208659 0
0.925165 -0.22189 0
0.94952 -0.235433 0
0.974124 -0.246178 0
0.999433 -0.257135 0
1.02478 -0.270772 0
1.04972 -0.283768 0
1.07453 -0.294161 0
1.09959 -0.304698 0
1.12466 -0.31663 0
1.1496 -0.327934 0
1.17476 -0.337645 0
1.1999 -0.34734 0
1.22479 -0.357836 0
1.24995 -0.368235 0
1.27526 -0.377795 0
1.30024 -0.386807 0
1.32517 -0.396035 0
1.35042 -0.405642 0
1.37567 -0.414965 0
1.40058 -0.423595 0
1.4253 -0.431879 0
1.45009 -0.440193 0
1.4749 -0.448539 0
1.49965 -0.456818 0
1.52444 -0.464996 0
1.54938 -0.472936 0
1.5744 -0.480434 0
1.59936 -0.487518 0
1.62426 -0.494492 0
1.64925 -0.501519 0
1.67442 -0.508346 0
1.69971 -0.514697 0
1.72496 -0.520665 0
1.75007 -0.526446 0
1.77507 -0.532046 0
1.8001 -0.53734 0
1.82521 -0.542267 0
1.85039 -0.546894 0
1.87558 -0.551338 0
1.90075 -0.555715 0
1.92591 -0.560061 0
1.95103 -0.564343 0
1.97607 -0.568532 0
2.00101 -0.572646 0
2.02582 -0.57672 0
2.05058 -0.580749 0
2.07535 -0.58466 0
2.10022 -0.588342 0
2.1252 -0.591694 0
2.15028 -0.594669 0
2.17544 -0.597274 0
2.20063 -0.599545 0
2.22584 -0.601521 0
2.25105 -0.603225 0
2.27625 -0.604663 0
2.30144 -0.605838 0
2.32663 -0.606759 0
2.35179 -0.607445 0
2.37694 -0.607929 0
2.40207 -0.608249 0
2.42717 -0.608447 0
2.45224 -0.608559 0
2.47728 -0.608613 0
2.50231 -0.608636 0
</DataArray>
</Points>
<PointData>
<DataArray NumberOfComponents='1' type='Int32' Name='Particle Type' format='ascii'>
0
0
0
0
0
0
0
0
0
0
0
0
0
0
0
0
0
0
0
0
0
0
1
1
1
1
1
1
1
1
1
1
1
1
1
1
1
1
1
1
1
1
1
1
1
1
1
1
1
1
1
1
1
1
1
1
1
1
1
1
1
1
1
1
1
1
1
1
1
1
1
1
1
1
1
1
1
1
1
1
1
1
1
1
1
1
1
1
1
1
1
1
1
1
1
1
1
1
1
1
1
1
1
1
1
1
1
1
1
1
1
1
1
1
1
1
1
1
1
1
1
1
1
1
1
1
1
1
1
1
1
1
1
1
1
1
1
1
1
1
1
1
1
1
1
1
1
1
1
1
1
1
1
1
1
1
1
1
1
1
1
1
1
1
1
1
1
1
1
1
1
1
1
1
1
1
1
1
1
1
1
1
1
1
1
1
1
1
1
1
1
1
1
1
1
1
1
1
1
1
1
1
1
1
1
1
1
1
1
1
1
1
1
1
1
1
1
1
1
1
1
1
1
1
1
1
1
1
1
1
1
1
1
1
1
1
1
1
1
1
1
1
1
1
1
1
1
1
1
1
1
1
1
1
1
1
1
1
1
1
1
1
1
1
1
1
1
1
1
1
1
1
1
1
1
1
1
1
1
1
1
1
1
1
1
1
1
1
1
1
1
1
1
1
1
1
1
1
1
1
1
1
1
1
1
1
1
1
1
1
1
1
1
1
1
1
1
1
1
1
1
1
1
1
1
1
1
1
1
1
1
1
1
1
1
1
1
1
1
1
1
1
1
1
1
1
1
1
1
1
1
1
1
1
1
1
1
1
1
1
1
1
1
1
1
1
1
1
1
1
1
1
1
1
1
1
1
1
1
1
1
1
1
1
1
1
1
1
1
1
1
1
1
1
1
1
1
1
1
1
1
1
1
1
1
1
1
1
1
1
1
1
1
1
1
1
1
1
1
1
1
1
1
1
1
1
1
1
1
1
1
1
1
1
1
1
1
1
1
1
1
1
1
1
1
1
1
1
1
1
1
1
1
1
1
1
1
1
1
1
1
1
1
1
1
1
1
1
1
1
1
1
1
1
1
1
1
1
1
1
1
1
1
1
1
1
1
1
1
1
1
1
1
1
1
1
1
1
1
1
1
1
1
1
1
1
1
1
1
1
1
1
1
1
1
1
1
1
1
1
1
1
1
1
1
1
1
1
1
1
1
1
1
1
1
1
1
1
1
1
1
1
1
1
1
1
1
1
1
1
1
1
1
1
1
1
1
1
1
1
1
1
1
1
1
1
1
1
1
1
1
1
1
1
1
1
1
1
1
1
1
1
1
1
1
1
1
1
1
1
1
1
1
1
1
1
1
1
1
1
1
1
1
1
1
1
1
1
1
1
1
1
1
1
1
1
1
1
1
1
1
1
1
1
1
1
1
1
1
1
1
1
1
1
1
1
1
1
1
1
1
1
1
1
1
1
1
1
1
1
1
1
1
1
1
1
1
1
1
1
1
1
1
1
1
1
1
1
1
1
1
1
1
1
1
1
1
1
1
1
1
1
1
1
1
1
1
1
1
1
1
1
1
1
1
1
1
1
1
1
1
1
1
1
1
1
1
1
1
1
1
1
1
1
1
1
1
1
1
1
1
1
1
1
1
1
1
1
1
1
1
1
1
1
1
1
1
1
1
1
1
1
1
1
1
1
1
1
1
1
1
1
1
1
1
1
1
1
1
1
1
1
1
1
1
1
1
1
1
1
1
1
1
1
1
1
1
1
1
1
1
1
1
1
1
1
1
1
1
1
1
1
1
1
1
1
1
1
1
1
1
1
1
1
1
1
1
1
</DataArray>
<DataArray NumberOfComponents='3' type='Float64' Name='Velocity' format='ascii'>
0 0 0
0 0 0
0 0 0
0 0 0
0 0 0
0 0 0
0 0 0
0 0 0
0 0 0
0 0 0
0 0 0
0 0 0
0 0 0
0 0 0
0 0 0
0 0 0
0 0 0
0 0 0
-0.0924181 -0.157842 0
-0.150255 -0.290695 0
0.00853441 -0.212526 0
-0.129043 -0.158724 0
0.0153092 -0.059585 0
0.118098 -0.0479518 0
-0.140375 0.0740487 0
-0.0311897 -0.190467 0
0.101054 -0.0825545 0
-0.0170985 -0.158389 0
0.0732843 -0.0290943 0
-0.101834 0.0795204 0
-0.0417969 -0.276762 0
0.071757 -0.0621133 0
-0.0221354 -0.0479814 0
0.0248651 -0.179951 0
0.0431084 -0.019584 0
-0.0664764 0.0327076 0
-0.144069 -0.140605 0
0.184789 -0.275423 0
0.0578859 -0.120377 0
-0.219453 -0.0907149 0
0.0878086 -0.187343 0
0.0281996 -0.114319 0
-0.148266 -0.111876 0
0.0780831 -0.22809 0
0.0800139 -0.205331 0
-0.059311 -0.148848 0
-0.0190863 -0.170142 0
0.0126509 -0.18109 0
-0.000818501 -0.189703 0
-0.0162089 -0.214692 0
-0.0153026 -0.194844 0
0.0274549 -0.178366 0
0.00557613 -0.220162 0
-0.0694093 -0.243638 0
-0.0281467 -0.219403 0
0.0543485 -0.234962 0
0.0169473 -0.281995 0
-0.0496324 -0.2746 0
-0.0301804 -0.237824 0
0.0120105 -0.241662 0
0.0116208 -0.263938 0
-0.0098568 -0.269779 0
-0.0232356 -0.282311 0
-0.0149126 -0.306401 0
0.013344 -0.308779 0
0.0336386 -0.292345 0
0.0188595 -0.285351 0
-0.0189137 -0.295711 0
-0.0379815 -0.305494 0
-0.018647 -0.312414 0
0.0146685 -0.326044 0
0.0256133 -0.342432 0
0.00729993 -0.350943 0
-0.0156695 -0.351695 0
-0.0211631 -0.354118 0
-0.0112804 -0.361692 0
-0.00129651 -0.371926 0
9.30998e-05 -0.382362 0
-0.00353178 -0.394164 0
-0.00589722 -0.405724 0
-0.00597757 -0.414396 0
-0.00595663 -0.419353 0
-0.00672836 -0.421447 0
-0.00751823 -0.419971 0
-0.00728852 -0.417025 0
-0.00541763 -0.41598 0
-0.00191208 -0.418527 0
0.0024181 -0.424148 0
0.00610942 -0.431424 0
0.0077241 -0.439382 0
0.00666989 -0.447818 0
0.00351467 -0.456807 0
-0.000421215 -0.466196 0
-0.003817 -0.475547 0
-0.00591011 -0.484466 0
-0.00660481 -0.492869 0
-0.00623701 -0.500964 0
-0.00524943 -0.509002 0
-0.00396883 -0.517047 0
-0.00254086 -0.524914 0
-0.000980398 -0.532261 0
0.000734812 -0.538743 0
0.00259081 -0.544139 0
0.00450817 -0.548394 0
0.00635071 -0.551586 0
0.00795404 -0.553855 0
0.00916241 -0.555326 0
0.0098841 -0.556098 0
0.0837842 -0.306663 0
0.00445096 0.0609297 0
-0.101116 -0.0378854 0
0.000975042 -0.0709329 0
0.0585165 -0.130543 0
-0.0498546 0.0157159 0
-0.0353881 -0.149798 0
0.174112 0.00565046 0
-0.0506353 -0.122189 0
-0.208907 0.0301303 0
0.266254 -0.0317574 0
-0.135408 0.103295 0
0.224304 -0.110672 0
0.0267537 0.0219005 0
-0.224289 0.0625644 0
-0.162871 -0.0748405 0
0.270448 -0.30222 0
-0.0130242 0.151747 0
-0.160653 0.0352637 0
0.0375833 -0.0392754 0
0.000948784 -0.0825998 0
0.0501417 -0.126741 0
0.0480984 -0.100435 0
0.0370545 -0.0371833 0
0.0779395 -0.0477125 0
-0.216367 0.00671017 0
-0.0524377 -0.339027 0
0.292532 -0.329068 0
-0.0676745 0.0299358 0
-0.190705 0.0196462 0
0.00980388 -0.0789519 0
0.0178398 -0.207964 0
0.075256 -0.214463 0
0.00392287 -0.0946825 0
-0.0858053 -0.147447 0
0.0166955 -0.205339 0
0.0189429 -0.152457 0
-0.0535844 -0.146539 0
-0.00311521 -0.20542 0
0.0459381 -0.198253 0
0.00427828 -0.184306 0
-0.0307087 -0.197509 0
-0.0218511 -0.190851 0
0.00636503 -0.193525 0
0.0124247 -0.223433 0
-0.0205281 -0.243137 0
-0.0259372 -0.236 0
0.0065154 -0.233569 0
0.00558852 -0.252506 0
-0.0232728 -0.262803 0
-0.0229341 -0.254714 0
0.00150118 -0.255487 0
0.0100459 -0.263517 0
-0.00508099 -0.269817 0
-0.0199952 -0.285419 0
-0.0133898 -0.304538 0
0.0102586 -0.304132 0
0.024275 -0.289745 0
0.0113361 -0.284401 0
-0.0140903 -0.294657 0
-0.0237918 -0.310607 0
-0.0104226 -0.322037 0
0.00838479 -0.329307 0
0.0137895 -0.337681 0
0.00363555 -0.345946 0
-0.0103196 -0.350459 0
-0.0159234 -0.355617 0
-0.0110121 -0.364441 0
-0.0035291 -0.374122 0
-0.00119154 -0.382702 0
-0.00347543 -0.393098 0
-0.00569624 -0.404814 0
-0.00616163 -0.414264 0
-0.00625054 -0.419182 0
-0.00681801 -0.420882 0
-0.00730327 -0.419875 0
-0.00679507 -0.41792 0
-0.00478691 -0.417783 0
-0.00142655 -0.420685 0
0.00245873 -0.425959 0
0.00561907 -0.432391 0
0.00693031 -0.439418 0
0.00595598 -0.447189 0
0.00315919 -0.455912 0
-0.000374296 -0.465381 0
-0.00350526 -0.47503 0
-0.00552574 -0.484323 0
-0.00629329 -0.49306 0
-0.00605429 -0.50138 0
-0.00517587 -0.509521 0
-0.00395252 -0.517586 0
-0.00253675 -0.52544 0
-0.000968612 -0.532781 0
0.00075067 -0.53928 0
0.00259492 -0.544705 0
0.00448423 -0.548978 0
0.0062896 -0.552158 0
0.00785678 -0.554374 0
0.0090418 -0.555758 0
0.00977619 -0.556456 0
-0.160221 0.143629 0
0.126058 0.219376 0
0.0770216 -0.129242 0
0.0747273 0.304239 0
0.054251 0.311021 0
-0.0503792 0.32568 0
-0.194834 0.209077 0
0.300106 0.620053 0
-0.0310933 -0.0127653 0
-0.209467 0.589694 0
0.314796 -0.391216 0
-0.230636 0.247881 0
-0.0358019 0.237322 0
0.134557 0.229451 0
0.156375 -0.21347 0
0.0407638 0.205803 0
0.0387881 0.242632 0
0.0256268 -0.00635146 0
-0.129046 0.103431 0
0.0825061 -0.262385 0
0.0457646 0.0470117 0
-0.146132 -0.289607 0
0.0478128 0.0112697 0
-0.133427 0.0375445 0
-0.0452523 -0.436669 0
0.197262 -0.150524 0
0.00129704 -0.0010522 0
-0.108811 -0.0534926 0
-0.0094749 -0.168983 0
0.0834849 -0.195333 0
-0.0219177 -0.0624087 0
-0.0836751 -0.101883 0
0.0511607 -0.194877 0
0.0328004 -0.13619 0
-0.0530293 -0.143243 0
-0.0059304 -0.177894 0
-0.00301543 -0.135681 0
-0.0365366 -0.16774 0
0.00771614 -0.220326 0
0.0340482 -0.206036 0
-0.00041193 -0.163782 0
-0.025864 -0.183755 0
-0.0230914 -0.210232 0
-0.00258243 -0.208429 0
0.0185093 -0.217276 0
0.000334388 -0.24077 0
-0.0277732 -0.242689 0
-0.0153959 -0.232189 0
0.00212222 -0.235716 0
-0.0118219 -0.250144 0
-0.0211319 -0.264894 0
-0.00248062 -0.272127 0
0.0104354 -0.268783 0
-0.00276255 -0.267591 0
-0.0182946 -0.281242 0
-0.0123501 -0.300054 0
0.00731234 -0.301769 0
0.0166227 -0.288458 0
0.00643334 -0.284469 0
-0.00899508 -0.299109 0
-0.0127963 -0.316181 0
-0.00466764 -0.324484 0
0.00436109 -0.32911 0
0.00596757 -0.336178 0
0.000133434 -0.342958 0
-0.00797261 -0.349948 0
-0.0123887 -0.356301 0
-0.0101424 -0.365057 0
-0.00464425 -0.375822 0
-0.00216478 -0.383231 0
-0.00372668 -0.391061 0
-0.00571255 -0.40344 0
-0.0063298 -0.413934 0
-0.00649555 -0.419009 0
-0.00692262 -0.42066 0
-0.00715816 -0.420173 0
-0.00639369 -0.419119 0
-0.00423335 -0.419695 0
-0.000950362 -0.422662 0
0.00261484 -0.427332 0
0.00536668 -0.432843 0
0.00639919 -0.439051 0
0.00540391 -0.446348 0
0.00281032 -0.454973 0
-0.000439082 -0.464611 0
-0.00334696 -0.47456 0
-0.00527215 -0.484175 0
-0.00606073 -0.493181 0
-0.00590443 -0.50168 0
-0.00511262 -0.509917 0
-0.00394503 -0.518023 0
-0.00254888 -0.5259 0
-0.000978197 -0.533269 0
0.000748105 -0.539806 0
0.00259199 -0.545274 0
0.00447022 -0.54958 0
0.00625758 -0.552766 0
0.00780798 -0.554963 0
0.00898912 -0.556312 0
0.00975083 -0.556987 0
0.00857414 -0.0510112 0
0.133202 -0.0710523 0
-0.129268 -0.228445 0
-0.0658442 -0.103477 0
0.0666538 -0.668944 0
-0.0638592 -0.159673 0
-0.0880358 -0.563447 0
-0.00703588 -0.362659 0
0.21296 -0.510838 0
-0.0753379 -0.315387 0
-0.108271 0.0188388 0
0.139834 -0.333867 0
-0.223012 -0.297681 0
0.140971 -0.482713 0
-0.241676 0.306824 0
-0.0109042 -0.493511 0
-0.108057 -0.0340339 0
0.00131966 -0.143335 0
0.0543456 -0.196088 0
0.0543446 -0.0507412 0
0.0363098 -0.00959657 0
-0.148432 0.0717058 0
0.127699 -0.302303 0
0.0531348 0.0481767 0
-0.167665 -0.0742631 0
0.0818934 -0.131855 0
0.0270618 0.0273331 0
-0.163071 -0.0938109 0
0.0574815 -0.187213 0
0.13652 -0.198165 0
-0.0684251 -0.155862 0
-0.0517704 -0.16222 0
0.0469451 -0.117724 0
-0.0432252 -0.0400857 0
-0.0662893 -0.181061 0
0.039925 -0.225566 0
0.0413717 -0.122667 0
-0.0217538 -0.16907 0
-0.0182002 -0.229766 0
-0.00168946 -0.173524 0
-0.00636485 -0.156448 0
-0.00363325 -0.210799 0
-0.0106867 -0.219853 0
-0.0123716 -0.207979 0
0.00986589 -0.218801 0
0.00347759 -0.224557 0
-0.0263431 -0.237387 0
-0.0173558 -0.245976 0
0.00505148 -0.230868 0
-0.00753682 -0.23775 0
-0.0221954 -0.271445 0
-0.0066849 -0.283572 0
0.00821655 -0.269994 0
-0.00155001 -0.265802 0
-0.0148072 -0.281023 0
-0.0103229 -0.296219 0
0.0036639 -0.295281 0
0.00997971 -0.288216 0
0.0049256 -0.291154 0
-0.00324603 -0.304601 0
-0.00591177 -0.317836 0
-0.00204082 -0.324525 0
0.00213656 -0.327973 0
0.00165576 -0.334498 0
-0.00251461 -0.343537 0
-0.00746628 -0.349792 0
-0.0104003 -0.355496 0
-0.00916364 -0.365717 0
-0.00528236 -0.37683 0
-0.00307896 -0.382694 0
-0.00397897 -0.389619 0
-0.00566171 -0.402199 0
-0.00644161 -0.413496 0
-0.00673914 -0.418923 0
-0.00706547 -0.420713 0
-0.00706239 -0.420806 0
-0.00606549 -0.420594 0
-0.00378201 -0.42171 0
-0.000545021 -0.424512 0
0.00281791 -0.428401 0
0.00530015 -0.432939 0
0.00611326 -0.438392 0
0.00503526 -0.445344 0
0.00251129 -0.453998 0
-0.000575762 -0.463891 0
-0.00332164 -0.474167 0
-0.00515102 -0.484074 0
-0.00592229 -0.493298 0
-0.00580353 -0.50194 0
-0.00506963 -0.510266 0
-0.00394939 -0.518436 0
-0.00257535 -0.526369 0
-0.00100519 -0.533797 0
0.000731024 -0.540396 0
0.00258485 -0.545919 0
0.00446753 -0.550261 0
0.00625391 -0.553462 0
0.00780238 -0.55565 0
0.00898773 -0.556983 0
0.00976844 -0.557654 0
0.0671043 -0.0358812 0
-0.0628173 0.254878 0
-0.0433198 0.268131 0
0.0301449 0.331124 0
0.113897 0.244092 0
0.124949 0.443638 0
0.0697581 0.141602 0
-0.16903 0.419052 0
0.0286478 0.07336 0
-0.119952 0.272168 0
-0.0379658 0.0582281 0
0.160844 0.26932 0
-0.187501 0.206575 0
0.255688 -0.111194 0
0.0216282 0.135112 0
0.0051953 -0.439719 0
-0.0227001 0.377661 0
0.0987771 -0.350525 0
-0.0943994 -0.227881 0
0.00420388 0.21532 0
-0.0449781 -0.0568365 0
0.0174777 -0.173129 0
0.0903876 -0.156225 0
0.0405489 0.124512 0
-0.0924858 -0.0948877 0
-0.0165477 -0.166901 0
0.0768338 -0.0857727 0
-0.0201166 -0.218707 0
-0.00849099 -0.051596 0
-0.020394 -0.00478575 0
-0.0795323 -0.187869 0
0.0255773 -0.264908 0
0.0679283 -0.105787 0
-0.0423057 -0.0877839 0
-0.0593662 -0.202476 0
0.0216398 -0.16129 0
0.0415436 -0.1503 0
0.0022483 -0.183946 0
-0.0329026 -0.16697 0
-0.0234063 -0.176918 0
0.00599862 -0.190456 0
0.00778051 -0.215058 0
-0.00654978 -0.227493 0
-0.0167278 -0.202369 0
-0.0110326 -0.196375 0
-0.0046056 -0.220998 0
-0.0116196 -0.249961 0
-0.00744055 -0.249562 0
0.00292365 -0.229026 0
-0.00731787 -0.238909 0
-0.0204868 -0.272835 0
-0.0119819 -0.282443 0
0.00212085 -0.270652 0
-0.000139627 -0.266978 0
-0.00970906 -0.279314 0
-0.00883816 -0.292386 0
0.000654274 -0.293636 0
0.00676819 -0.290437 0
0.00540848 -0.296518 0
0.000665105 -0.309265 0
-0.00234633 -0.317641 0
-0.00155629 -0.321503 0
0.000684421 -0.327517 0
0.000122408 -0.336064 0
-0.0037599 -0.34386 0
-0.0077532 -0.349112 0
-0.0095506 -0.355174 0
-0.00868743 -0.366069 0
-0.00599796 -0.376804 0
-0.00390557 -0.382007 0
-0.00402888 -0.388707 0
-0.00537872 -0.401271 0
-0.00644428 -0.412949 0
-0.00697939 -0.41888 0
-0.00721943 -0.420976 0
-0.00698868 -0.421678 0
-0.00583679 -0.42219 0
-0.00351571 -0.423686 0
-0.000306329 -0.426215 0
0.00300294 -0.429285 0
0.00539863 -0.432856 0
0.00608703 -0.437592 0
0.00488769 -0.444257 0
0.00230715 -0.45301 0
-0.000751 -0.463219 0
-0.00341596 -0.473848 0
-0.00516357 -0.484037 0
-0.00588707 -0.493443 0
-0.00576307 -0.502197 0
-0.00505376 -0.510603 0
-0.00396515 -0.518845 0
-0.00261122 -0.526857 0
-0.00104335 -0.534368 0
0.000704849 -0.541044 0
0.00257724 -0.546629 0
0.00447803 -0.551008 0
0.00627819 -0.554219 0
0.00783569 -0.556398 0
0.00902731 -0.557716 0
0.00981498 -0.558383 0
0.0182594 -0.0869709 0
-0.050047 -0.0660005 0
0.0721985 -0.357796 0
-0.230449 -0.00338493 0
-0.0759444 -0.399789 0
0.0187351 -0.653837 0
-0.192557 0.0146722 0
0.0709055 -0.275439 0
0.193197 0.0419888 0
-0.0400902 0.383544 0
0.0772141 -0.239415 0
-0.0225691 0.140111 0
-0.0944157 -0.188763 0