<?xml version='1.0' encoding='UTF-8'?>
<VTKFile byte_order='LittleEndian' version='0.1' type = 'UnstructuredGrid'>
<UnstructuredGrid>
<FieldData>
<DataArray type='Float64' Name='Time' NumberOfComponents='1' NumberOfTuples='1' format='ascii'>
2.361
</DataArray>
</FieldData>
<Piece NumberOfCells='808' NumberOfPoints='808'>
<Points>
<DataArray NumberOfComponents='3' type='Float64' Name='position' format='ascii'>
0 0 0
0 0.025 0
0 0.05 0
0 0.075 0
0 0.1 0
0 0.125 0
0 0.15 0
0 0.175 0
0.025 0 0
0.05 0 0
0.075 0 0
0.1 0 0
0.125 0 0
0.15 0 0
0.175 0 0
0.2 0 0
0.225 0 0
0.25 0 0
0.275 0 0
0.3 0 0
0.323959 -0.00447661 0
0.341213 -0.00807175 0
0.374528 -0.0430486 0
0.402197 -0.0645062 0
0.427169 -0.0797686 0
0.452102 -0.0964359 0
0.478784 -0.111053 0
0.502904 -0.123391 0
0.528139 -0.138625 0
0.553633 -0.150403 0
0.577816 -0.163238 0
0.602364 -0.176623 0
0.62764 -0.189172 0
0.653683 -0.201166 0
0.676712 -0.213002 0
0.702626 -0.225269 0
0.728757 -0.236177 0
0.751196 -0.247206 0
0.777221 -0.259268 0
0.803579 -0.270409 0
0.827139 -0.280751 0
0.852333 -0.291365 0
0.878081 -0.301318 0
0.902662 -0.310644 0
0.927307 -0.320576 0
0.95224 -0.330509 0
0.977616 -0.339744 0
1.00301 -0.349145 0
1.02739 -0.358715 0
1.05163 -0.367503 0
1.07684 -0.375789 0
1.10212 -0.384425 0
1.12665 -0.393033 0
1.15115 -0.401263 0
1.17619 -0.409468 0
1.20138 -0.417508 0
1.22623 -0.424973 0
1.25076 -0.432162 0
1.27534 -0.439437 0
1.30031 -0.446492 0
1.32568 -0.453011 0
1.35113 -0.459257 0
1.37628 -0.465601 0
1.4011 -0.471936 0
1.42587 -0.477867 0
1.45086 -0.483225 0
1.47605 -0.488183 0
1.50126 -0.492941 0
1.52638 -0.497551 0
1.55144 -0.502004 0
1.5765 -0.506349 0
1.60154 -0.510704 0
1.62649 -0.515112 0
1.65131 -0.519495 0
1.67604 -0.523732 0
1.70076 -0.527749 0
1.72556 -0.53153 0
1.75048 -0.535072 0
1.77551 -0.538355 0
1.80064 -0.541344 0
1.8258 -0.54402 0
1.85098 -0.546387 0
1.87613 -0.548469 0
1.90126 -0.550286 0
1.92637 -0.55185 0
1.95144 -0.553163 0
1.97649 -0.554229 0
2.00151 -0.555061 0
2.0265 -0.555684 0
2.05145 -0.55613 0
2.07637 -0.556437 0
2.10127 -0.556639 0
2.12614 -0.556764 0
2.15099 -0.556835 0
2.17585 -0.556868 0
2.2007 -0.556876 0
2.22556 -0.556868 0
2.25044 -0.55685 0
2.27534 -0.556829 0
2.30025 -0.556808 0
2.32518 -0.556788 0
2.35013 -0.556771 0
2.37509 -0.556758 0
2.40006 -0.556747 0
2.42504 -0.556739 0
2.45003 -0.556734 0
2.47502 -0.55673 0
2.50001 -0.556728 0
0.0251072 0.0235159 0
0.0496085 0.0240671 0
0.0738741 0.0229427 0
0.0987589 0.022736 0
0.123891 0.0198236 0
0.148769 0.0198205 0
0.173623 0.0174394 0
0.199473 0.0182047 0
0.22363 0.0159524 0
0.250524 0.0173494 0
0.275633 0.0134224 0
0.295498 0.0126576 0
0.327707 0.00479424 0
0.351211 -0.00787638 0
0.375246 -0.0248848 0
0.402008 -0.0428468 0
0.428002 -0.0596525 0
0.453631 -0.0747471 0
0.478071 -0.086656 0
0.502458 -0.0995998 0
0.52825 -0.113904 0
0.553084 -0.126723 0
0.577862 -0.139176 0
0.603116 -0.152009 0
0.627304 -0.163509 0
0.651979 -0.176122 0
0.677838 -0.189486 0
0.703439 -0.200746 0
0.727467 -0.211626 0
0.751889 -0.223738 0
0.777967 -0.235186 0
0.80296 -0.245306 0
0.827051 -0.255928 0
0.852192 -0.266545 0
0.877579 -0.276411 0
0.902676 -0.286341 0
0.927621 -0.296449 0
0.952427 -0.306106 0
0.977557 -0.315197 0
1.00266 -0.324411 0
1.02717 -0.333762 0
1.05178 -0.342748 0
1.07698 -0.351273 0
1.10202 -0.3597 0
1.12658 -0.368157 0
1.15123 -0.376581 0
1.17622 -0.384833 0
1.20126 -0.392723 0
1.22611 -0.400162 0
1.2508 -0.407398 0
1.2755 -0.414643 0
1.30043 -0.421685 0
1.32565 -0.428287 0
1.351 -0.434598 0
1.37618 -0.440867 0
1.4011 -0.447056 0
1.42595 -0.452925 0
1.45092 -0.458322 0
1.47605 -0.463325 0
1.50122 -0.46808 0
1.52634 -0.47266 0
1.55143 -0.477109 0
1.57649 -0.481472 0
1.60151 -0.485822 0
1.62645 -0.49019 0
1.65128 -0.494521 0
1.67603 -0.498726 0
1.70078 -0.502743 0
1.72559 -0.506544 0
1.75051 -0.510109 0
1.77554 -0.513408 0
1.80065 -0.516404 0
1.8258 -0.51908 0
1.85097 -0.521442 0
1.87612 -0.523514 0
1.90126 -0.525318 0
1.92636 -0.526867 0
1.95144 -0.528166 0
1.97649 -0.52922 0
2.0015 -0.530041 0
2.02649 -0.530655 0
2.05145 -0.531093 0
2.07637 -0.531393 0
2.10126 -0.531589 0
2.12614 -0.53171 0
2.15099 -0.531779 0
2.17585 -0.531813 0
2.2007 -0.531824 0
2.22557 -0.531822 0
2.25045 -0.531811 0
2.27534 -0.531797 0
2.30025 -0.531782 0
2.32518 -0.531768 0
2.35013 -0.531757 0
2.37509 -0.531747 0
2.40006 -0.53174 0
2.42504 -0.531734 0
2.45003 -0.531731 0
2.47502 -0.531728 0
2.50001 -0.531727 0
0.0240375 0.0498044 0
0.049762 0.0497408 0
0.075062 0.0482454 0
0.0996061 0.049057 0
0.124437 0.0488141 0
0.148652 0.0498808 0
0.173728 0.0470431 0
0.19907 0.0483544 0
0.222621 0.0435821 0
0.248501 0.0422816 0
0.276137 0.0342339 0
0.300394 0.0332774 0
0.326502 0.0247562 0
0.354955 0.00583145 0
0.378164 -0.00346366 0
0.402776 -0.0201017 0
0.428543 -0.0359512 0
0.453769 -0.0478556 0
0.477841 -0.0620402 0
0.503172 -0.0755628 0
0.52854 -0.08917 0
0.552474 -0.101355 0
0.577092 -0.115437 0
0.603135 -0.128843 0
0.628477 -0.140033 0
0.652514 -0.150964 0
0.677128 -0.163558 0
0.702573 -0.176073 0
0.727472 -0.187584 0
0.752579 -0.199255 0
0.777943 -0.209914 0
0.802572 -0.220415 0
0.827229 -0.231302 0
0.852289 -0.241537 0
0.877349 -0.251609 0
0.902554 -0.26185 0
0.927644 -0.27182 0
0.95249 -0.281356 0
0.97755 -0.290512 0
1.00253 -0.299497 0
1.02708 -0.308727 0
1.05185 -0.317874 0
1.07703 -0.326429 0
1.10196 -0.334733 0
1.12653 -0.343201 0
1.15126 -0.3517 0
1.17624 -0.359967 0
1.2012 -0.367839 0
1.22603 -0.375281 0
1.25082 -0.382515 0
1.27563 -0.389719 0
1.30054 -0.396756 0
1.32566 -0.403441 0
1.35091 -0.409827 0
1.3761 -0.416063 0
1.40111 -0.42213 0
1.42602 -0.427904 0
1.45098 -0.43331 0
1.47605 -0.43837 0
1.50118 -0.443141 0
1.52631 -0.447715 0
1.55141 -0.452168 0
1.57648 -0.456545 0
1.60149 -0.46089 0
1.62641 -0.465229 0
1.65125 -0.469523 0
1.67603 -0.473704 0
1.7008 -0.477718 0
1.72562 -0.481533 0
1.75054 -0.485119 0
1.77556 -0.488436 0
1.80066 -0.491446 0
1.8258 -0.494129 0
1.85097 -0.496491 0
1.87612 -0.498556 0
1.90125 -0.500348 0
1.92636 -0.501885 0
1.95144 -0.503171 0
1.97648 -0.504213 0
2.0015 -0.505025 0
2.02649 -0.50563 0
2.05144 -0.506061 0
2.07637 -0.506354 0
2.10126 -0.506544 0
2.12614 -0.506661 0
2.151 -0.506728 0
2.17585 -0.506763 0
2.20071 -0.506777 0
2.22557 -0.506779 0
2.25045 -0.506775 0
2.27534 -0.506767 0
2.30026 -0.506759 0
2.32519 -0.50675 0
2.35013 -0.506743 0
2.37509 -0.506738 0
2.40006 -0.506733 0
2.42504 -0.50673 0
2.45003 -0.506728 0
2.47502 -0.506727 0
2.50002 -0.506726 0
0.0241428 0.0738816 0
0.0496506 0.0728024 0
0.0741513 0.0714804 0
0.0985247 0.0716085 0
0.123749 0.0706678 0
0.148505 0.0687599 0
0.173283 0.0679631 0
0.199239 0.0666322 0
0.224239 0.0617069 0
0.248908 0.0633999 0
0.275075 0.0529723 0
0.30189 0.0480994 0
0.326342 0.0397323 0
0.353867 0.0279169 0
0.379209 0.0160134 0
0.403294 0.00143527 0
0.428425 -0.010488 0
0.454114 -0.0236319 0
0.477771 -0.0386628 0
0.503566 -0.0525529 0
0.528865 -0.063795 0
0.553092 -0.0786625 0
0.578377 -0.0905335 0
0.603019 -0.102224 0
0.627547 -0.115732 0
0.652673 -0.12721 0
0.677499 -0.139132 0
0.70228 -0.151303 0
0.727338 -0.162404 0
0.752576 -0.173821 0
0.777654 -0.184929 0
0.802436 -0.195734 0
0.827409 -0.206515 0
0.852465 -0.216965 0
0.877403 -0.227058 0
0.902424 -0.236923 0
0.927418 -0.246816 0
0.9524 -0.256514 0
0.977553 -0.265749 0
1.00257 -0.274728 0
1.02719 -0.28379 0
1.05191 -0.292876 0
1.07694 -0.301516 0
1.10184 -0.309792 0
1.12651 -0.318192 0
1.15131 -0.326735 0
1.17627 -0.335043 0
1.20117 -0.34293 0
1.22598 -0.350418 0
1.25082 -0.357653 0
1.27572 -0.364799 0
1.30066 -0.371819 0
1.3257 -0.378573 0
1.35085 -0.385032 0
1.37602 -0.391247 0
1.40109 -0.397216 0
1.42606 -0.402905 0
1.45102 -0.408289 0
1.47605 -0.413372 0
1.50116 -0.418171 0
1.52629 -0.422757 0
1.55141 -0.427219 0
1.57647 -0.431601 0
1.60147 -0.435941 0
1.62639 -0.440259 0
1.65123 -0.444527 0
1.67602 -0.448689 0
1.70081 -0.452699 0
1.72564 -0.456524 0
1.75055 -0.460128 0
1.77557 -0.463466 0
1.80066 -0.466493 0
1.8258 -0.469186 0
1.85097 -0.47155 0
1.87612 -0.473609 0
1.90125 -0.475391 0
1.92636 -0.476913 0
1.95144 -0.478186 0
1.97649 -0.479216 0
2.0015 -0.480017 0
2.02649 -0.480612 0
2.05145 -0.481034 0
2.07637 -0.481318 0
2.10126 -0.481501 0
2.12614 -0.481613 0
2.151 -0.481677 0
2.17585 -0.481712 0
2.20071 -0.48173 0
2.22557 -0.481737 0
2.25045 -0.481738 0
2.27534 -0.481737 0
2.30026 -0.481735 0
2.32519 -0.481733 0
2.35013 -0.48173 0
2.37509 -0.481729 0
2.40006 -0.481727 0
2.42504 -0.481726 0
2.45003 -0.481725 0
2.47502 -0.481725 0
2.50002 -0.481725 0
0.0248703 0.0981394 0
0.0493388 0.0973806 0
0.0738537 0.0965928 0
0.0994716 0.0955991 0
0.124315 0.0926912 0
0.149072 0.0916922 0
0.174186 0.088941 0
0.198581 0.0871553 0
0.223908 0.0830244 0
0.248913 0.0828329 0
0.275392 0.0774806 0
0.302766 0.06868 0
0.326207 0.0600152 0
0.352994 0.049326 0
0.378719 0.0379231 0
0.403699 0.0242218 0
0.429048 0.0124442 0
0.454294 -0.00233913 0
0.478155 -0.0153604 0
0.503531 -0.0284885 0
0.528762 -0.0400445 0
0.552818 -0.0522321 0
0.578135 -0.0657277 0
0.603195 -0.0771397 0
0.627239 -0.0901823 0
0.6524 -0.103339 0
0.67832 -0.115498 0
0.703004 -0.126061 0
0.727142 -0.136768 0
0.752121 -0.148835 0
0.777445 -0.160415 0
0.802449 -0.171067 0
0.827405 -0.181776 0
0.852399 -0.192344 0
0.877383 -0.202354 0
0.902412 -0.211933 0
0.927337 -0.221633 0
0.952287 -0.231645 0
0.977504 -0.241124 0
1.00264 -0.249982 0
1.02736 -0.258841 0
1.05197 -0.267911 0
1.07679 -0.276644 0
1.10167 -0.2849 0
1.12649 -0.29323 0
1.15136 -0.30171 0
1.17628 -0.310033 0
1.20113 -0.31803 0
1.22593 -0.325596 0
1.25081 -0.332828 0
1.27578 -0.339939 0
1.30077 -0.346936 0
1.32576 -0.3537 0
1.35083 -0.360193 0
1.37595 -0.366416 0
1.40105 -0.372335 0
1.42606 -0.377942 0
1.45103 -0.383276 0
1.47605 -0.388365 0
1.50115 -0.393197 0
1.52628 -0.397808 0
1.55141 -0.402278 0
1.57647 -0.406658 0
1.60146 -0.41099 0
1.62637 -0.415294 0
1.65122 -0.419542 0
1.67602 -0.423687 0
1.70081 -0.427691 0
1.72564 -0.431523 0
1.75056 -0.435147 0
1.77557 -0.438508 0
1.80066 -0.441554 0
1.8258 -0.444258 0
1.85096 -0.446623 0
1.87612 -0.448675 0
1.90125 -0.450445 0
1.92636 -0.451954 0
1.95144 -0.453213 0
1.97649 -0.45423 0
2.00151 -0.455018 0
2.0265 -0.455602 0
2.05145 -0.456012 0
2.07637 -0.456286 0
2.10127 -0.45646 0
2.12614 -0.456566 0
2.151 -0.456627 0
2.17585 -0.456662 0
2.20071 -0.456682 0
2.22557 -0.456694 0
2.25045 -0.456702 0
2.27534 -0.456707 0
2.30026 -0.456712 0
2.32519 -0.456715 0
2.35013 -0.456717 0
2.37509 -0.456719 0
2.40006 -0.456721 0
2.42504 -0.456722 0
2.45003 -0.456723 0
2.47502 -0.456723 0
2.50002 -0.456723 0
0.0246317 0.122686 0
0.0492542 0.121052 0
0.0746669 0.119301 0
0.0998096 0.117943 0
0.123052 0.115905 0
0.148585 0.116492 0
0.174645 0.112028 0
0.198729 0.112292 0
0.22586 0.1077 0
0.249825 0.101334 0
0.274975 0.0982244 0
0.302118 0.0908722 0
0.327442 0.082918 0
0.353404 0.0724797 0
0.379139 0.0610461 0
0.403816 0.0477872 0
0.429088 0.0361009 0
0.453945 0.0221148 0
0.478594 0.0110145 0
0.503835 -0.00314512 0
0.5281 -0.0150325 0
0.553023 -0.0282466 0
0.578062 -0.043534 0
0.60316 -0.0529925 0
0.627825 -0.0646061 0
0.652537 -0.0781659 0
0.678002 -0.0898428 0
0.702847 -0.101063 0
0.727379 -0.112627 0
0.752453 -0.124493 0
0.777494 -0.135708 0
0.802297 -0.146214 0
0.827182 -0.156915 0
0.852168 -0.16769 0
0.877259 -0.177554 0
0.902444 -0.186803 0
0.927436 -0.19671 0
0.952296 -0.206871 0
0.977407 -0.216334 0
1.00262 -0.225151 0
1.02746 -0.233921 0
1.05202 -0.243026 0
1.0767 -0.251846 0
1.10156 -0.260073 0
1.12646 -0.268267 0
1.15136 -0.276624 0
1.17626 -0.28499 0
1.20109 -0.293109 0
1.2259 -0.300773 0
1.25083 -0.308058 0
1.27584 -0.315146 0
1.30085 -0.322075 0
1.32582 -0.328804 0
1.35084 -0.335315 0
1.37592 -0.341562 0
1.401 -0.347467 0
1.42603 -0.353004 0
1.45102 -0.358275 0
1.47604 -0.363364 0
1.50114 -0.368233 0
1.52629 -0.372869 0
1.55142 -0.377344 0
1.57648 -0.381713 0
1.60146 -0.386034 0
1.62637 -0.390328 0
1.65121 -0.394561 0
1.67601 -0.398691 0
1.7008 -0.402687 0
1.72563 -0.406529 0
1.75055 -0.410174 0
1.77556 -0.413562 0
1.80066 -0.41663 0
1.8258 -0.419344 0
1.85097 -0.421708 0
1.87612 -0.423751 0
1.90125 -0.425509 0
1.92636 -0.427004 0
1.95144 -0.42825 0
1.97649 -0.429254 0
2.00152 -0.430029 0
2.02651 -0.430599 0
2.05146 -0.430996 0
2.07638 -0.431258 0
2.10127 -0.431422 0
2.12614 -0.431521 0
2.151 -0.431578 0
2.17585 -0.431613 0
2.20071 -0.431635 0
2.22557 -0.431652 0
2.25045 -0.431666 0
2.27534 -0.431678 0
2.30026 -0.431688 0
2.32519 -0.431697 0
2.35013 -0.431704 0
2.37509 -0.43171 0
2.40006 -0.431715 0
2.42504 -0.431718 0
2.45003 -0.43172 0
2.47502 -0.431721 0
2.50002 -0.431722 0
0.0244164 0.149278 0
0.0489468 0.14861 0
0.0741818 0.146841 0
0.0989201 0.146631 0
0.124175 0.144003 0
0.149148 0.14174 0
0.173663 0.139822 0
0.200363 0.135603 0
0.225097 0.131443 0
0.249743 0.128036 0
0.27661 0.120708 0
0.300418 0.114431 0
0.327992 0.105505 0
0.353202 0.0954473 0
0.378779 0.0836861 0
0.403868 0.0712454 0
0.428468 0.0589404 0
0.453411 0.0469771 0
0.478393 0.0335628 0
0.50364 0.0216621 0
0.528615 0.00646361 0
0.553794 -0.00451238 0
0.578404 -0.0154593 0
0.602977 -0.02963 0
0.628087 -0.0414245 0
0.652681 -0.0523481 0
0.677266 -0.064585 0
0.702427 -0.0764799 0
0.727728 -0.0882818 0
0.752681 -0.100386 0
0.777413 -0.111143 0
0.80231 -0.121261 0
0.827223 -0.13203 0
0.852011 -0.142949 0
0.877079 -0.152815 0
0.902443 -0.162057 0
0.927519 -0.17194 0
0.952313 -0.18212 0
0.977324 -0.19142 0
1.00253 -0.200261 0
1.02748 -0.209164 0
1.05207 -0.218207 0
1.07669 -0.227112 0
1.10151 -0.235394 0
1.12642 -0.243319 0
1.15133 -0.251497 0
1.1762 -0.25998 0
1.20103 -0.268255 0
1.22589 -0.276008 0
1.25085 -0.283347 0
1.27588 -0.290408 0
1.30089 -0.297224 0
1.32586 -0.303887 0
1.35086 -0.31044 0
1.3759 -0.316735 0
1.40095 -0.322607 0
1.42598 -0.328084 0
1.45098 -0.333321 0
1.47603 -0.338401 0
1.50114 -0.343292 0
1.5263 -0.347963 0
1.55143 -0.352434 0
1.57649 -0.356782 0
1.60146 -0.361089 0
1.62637 -0.365373 0
1.65121 -0.369593 0
1.67601 -0.373706 0
1.70079 -0.377695 0
1.72561 -0.381549 0
1.75052 -0.385223 0
1.77554 -0.388642 0
1.80065 -0.391731 0
1.8258 -0.394451 0
1.85097 -0.396809 0
1.87612 -0.39884 0
1.90125 -0.400583 0
1.92636 -0.402065 0
1.95144 -0.403298 0
1.9765 -0.404289 0
2.00152 -0.40505 0
2.02651 -0.405605 0
2.05147 -0.405987 0
2.07639 -0.406235 0
2.10128 -0.406387 0
2.12615 -0.406478 0
2.151 -0.406531 0
2.17585 -0.406564 0
2.20071 -0.406589 0
2.22557 -0.40661 0
2.25045 -0.40663 0
2.27534 -0.406648 0
2.30025 -0.406665 0
2.32518 -0.406679 0
2.35013 -0.406691 0
2.37509 -0.406701 0
2.40006 -0.406708 0
2.42504 -0.406714 0
2.45003 -0.406717 0
2.47502 -0.40672 0
2.50001 -0.406721 0
0.0249896 0.173409 0
0.049812 0.171477 0
0.0739522 0.170821 0
0.0993316 0.168252 0
0.123707 0.167929 0
0.15002 0.164887 0
0.173886 0.162688 0
0.199549 0.15956 0
0.224789 0.155676 0
0.250224 0.150604 0
0.277097 0.144638 0
0.301338 0.137153 0
0.327648 0.128255 0
0.35322 0.118886 0
0.377152 0.10761 0
0.404344 0.0968894 0
0.429003 0.0839734 0
0.453233 0.0705819 0
0.479626 0.0589858 0
0.503513 0.0456729 0
0.527964 0.032984 0
0.553847 0.0208486 0
0.578114 0.00763451 0
0.602451 -0.00533869 0
0.628203 -0.0166189 0
0.65313 -0.0285807 0
0.677088 -0.0412512 0
0.70242 -0.0524985 0
0.728007 -0.0634912 0
0.752203 -0.0752841 0
0.776747 -0.0867488 0
0.8025 -0.0971344 0
0.827759 -0.107641 0
0.852081 -0.118259 0
0.876881 -0.128224 0
0.902324 -0.137772 0
0.927491 -0.147501 0
0.952293 -0.157347 0
0.97724 -0.166775 0
1.00247 -0.175626 0
1.02751 -0.184534 0
1.05213 -0.193674 0
1.07671 -0.202594 0
1.10147 -0.210786 0
1.12635 -0.218494 0
1.15128 -0.226598 0
1.17616 -0.235197 0
1.20098 -0.243607 0
1.22587 -0.251439 0
1.25088 -0.258764 0
1.2759 -0.265725 0
1.30089 -0.272458 0
1.32587 -0.279115 0
1.35087 -0.285693 0
1.3759 -0.291997 0
1.40092 -0.297841 0
1.42593 -0.303263 0
1.45094 -0.308457 0
1.476 -0.313544 0
1.50114 -0.318468 0
1.52632 -0.323146 0
1.55146 -0.327585 0
1.57651 -0.331896 0
1.60148 -0.336185 0
1.62638 -0.340458 0
1.65122 -0.344659 0
1.676 -0.34875 0
1.70077 -0.352732 0
1.72558 -0.356603 0
1.75049 -0.360311 0
1.77552 -0.363765 0
1.80063 -0.366872 0
1.8258 -0.36959 0
1.85097 -0.371933 0
1.87613 -0.373945 0
1.90126 -0.375671 0
1.92636 -0.377138 0
1.95145 -0.378358 0
1.97651 -0.379334 0
2.00153 -0.380079 0
2.02653 -0.380615 0
2.05148 -0.380979 0
2.0764 -0.381211 0
2.10129 -0.381351 0
2.12615 -0.381431 0
2.15101 -0.38148 0
2.17585 -0.381512 0
2.20071 -0.381539 0
2.22557 -0.381565 0
2.25044 -0.38159 0
2.27534 -0.381615 0
2.30025 -0.381639 0
2.32518 -0.381659 0
2.35013 -0.381677 0
2.37509 -0.38169 0
2.40006 -0.381701 0
2.42504 -0.381709 0
2.45003 -0.381714 0
2.47502 -0.381718 0
2.50001 -0.38172 0
</DataArray>
</Points>
<PointData>
<DataArray NumberOfComponents='1' type='Int32' Name='Particle Type' format='ascii'>
0
0
0
0
0
0
0
0
0
0
0
0
0
0
0
0
0
0
0
0
0
0
1
1
1
1
1
1
1
1
1
1
1
1
1
1
1
1
1
1
1
1
1
1
1
1
1
1
1
1
1
1
1
1
1
1
1
1
1
1
1
1
1
1
1
1
1
1
1
1
1
1
1
1
1
1
1
1
1
1
1
1
1
1
1
1
1
1
1
1
1
1
1
1
1
1
1
1
1
1
1
1
1
1
1
1
1
1
1
1
1
1
1
1
1
1
1
1
1
1
1
1
1
1
1
1
1
1
1
1
1
1
1
1
1
1
1
1
1
1
1
1
1
1
1
1
1
1
1
1
1
1
1
1
1
1
1
1
1
1
1
1
1
1
1
1
1
1
1
1
1
1
1
1
1
1
1
1
1
1
1
1
1
1
1
1
1
1
1
1
1
1
1
1
1
1
1
1
1
1
1
1
1
1
1
1
1
1
1
1
1
1
1
1
1
1
1
1
1
1
1
1
1
1
1
1
1
1
1
1
1
1
1
1
1
1
1
1
1
1
1
1
1
1
1
1
1
1
1
1
1
1
1
1
1
1
1
1
1
1
1
1
1
1
1
1
1
1
1
1
1
1
1
1
1
1
1
1
1
1
1
1
1
1
1
1
1
1
1
1
1
1
1
1
1
1
1
1
1
1
1
1
1
1
1
1
1
1
1
1
1
1
1
1
1
1
1
1
1
1
1
1
1
1
1
1
1
1
1
1
1
1
1
1
1
1
1
1
1
1
1
1
1
1
1
1
1
1
1
1
1
1
1
1
1
1
1
1
1
1
1
1
1
1
1
1
1
1
1
1
1
1
1
1
1
1
1
1
1
1
1
1
1
1
1
1
1
1
1
1
1
1
1
1
1
1
1
1
1
1
1
1
1
1
1
1
1
1
1
1
1
1
1
1
1
1
1
1
1
1
1
1
1
1
1
1
1
1
1
1
1
1
1
1
1
1
1
1
1
1
1
1
1
1
1
1
1
1
1
1
1
1
1
1
1
1
1
1
1
1
1
1
1
1
1
1
1
1
1
1
1
1
1
1
1
1
1
1
1
1
1
1
1
1
1
1
1
1
1
1
1
1
1
1
1
1
1
1
1
1
1
1
1
1
1
1
1
1
1
1
1
1
1
1
1
1
1
1
1
1
1
1
1
1
1
1
1
1
1
1
1
1
1
1
1
1
1
1
1
1
1
1
1
1
1
1
1
1
1
1
1
1
1
1
1
1
1
1
1
1
1
1
1
1
1
1
1
1
1
1
1
1
1
1
1
1
1
1
1
1
1
1
1
1
1
1
1
1
1
1
1
1
1
1
1
1
1
1
1
1
1
1
1
1
1
1
1
1
1
1
1
1
1
1
1
1
1
1
1
1
1
1
1
1
1
1
1
1
1
1
1
1
1
1
1
1
1
1
1
1
1
1
1
1
1
1
1
1
1
1
1
1
1
1
1
1
1
1
1
1
1
1
1
1
1
1
1
1
1
1
1
1
1
1
1
1
1
1
1
1
1
1
1
1
1
1
1
1
1
1
1
1
1
1
1
1
1
1
1
1
1
1
1
1
1
1
1
1
1
1
1
1
1
1
1
1
1
1
1
1
1
1
1
1
1
1
1
1
1
1
1
1
1
1
1
1
1
1
1
1
1
1
1
1
1
1
1
1
1
1
1
1
1
1
1
1
1
1
1
1
1
1
1
1
1
1
1
1
1
1
1
1
1
1
1
1
1
1
1
1
1
1
1
1
1
1
1
1
1
1
1
1
1
1
1
1
1
1
1
1
1
1
1
1
1
1
1
1
</DataArray>
<DataArray NumberOfComponents='3' type='Float64' Name='Velocity' format='ascii'>
0 0 0
0 0 0
0 0 0
0 0 0
0 0 0
0 0 0
0 0 0
0 0 0
0 0 0
0 0 0
0 0 0
0 0 0
0 0 0
0 0 0
0 0 0
0 0 0
0 0 0
0 0 0
0 0 0
0 0 0
-0.0107857 -0.0842871 0
-0.0273274 -0.0472169 0
-0.04889 0.0317424 0
0.00752568 -0.0792783 0
0.0385127 -0.052695 0
-0.0345424 0.0209715 0
-0.0193801 -0.0940808 0
0.0213007 -0.0300845 0
-0.0319181 -0.0539052 0
0.0126735 -0.105229 0
0.0148968 -0.0460861 0
0.00296238 -0.0641076 0
-0.0435244 -0.0830467 0
0.0152225 -0.110906 0
0.0324307 -0.0957335 0
-0.0676311 -0.11191 0
0.0332377 -0.140226 0
0.0311214 -0.103927 0
-0.0704175 -0.0988931 0
0.00113089 -0.136505 0
0.0179905 -0.142855 0
-0.0321341 -0.14892 0
-0.00650443 -0.180283 0
0.0134481 -0.177985 0
0.00239154 -0.159376 0
-0.0103164 -0.171463 0
-0.021412 -0.18086 0
-0.00161253 -0.171842 0
0.023247 -0.183746 0
0.00580479 -0.209254 0
-0.0150057 -0.209289 0
-9.33167e-05 -0.201964 0
0.0145134 -0.211581 0
0.00366411 -0.218363 0
-0.00894834 -0.218956 0
-0.00423388 -0.23177 0
0.00901895 -0.246442 0
0.013978 -0.246884 0
0.00489608 -0.247241 0
-0.0100805 -0.260784 0
-0.0181095 -0.27514 0
-0.0129666 -0.276456 0
-0.000936398 -0.272766 0
0.00565996 -0.278491 0
0.00188198 -0.294816 0
-0.0059236 -0.310856 0
-0.00944737 -0.320163 0
-0.00749056 -0.325393 0
-0.00446852 -0.330274 0
-0.00333872 -0.334755 0
-0.0029009 -0.336432 0
-0.000803791 -0.335099 0
0.00323007 -0.334403 0
0.00725209 -0.337122 0
0.00904914 -0.343006 0
0.00778458 -0.350216 0
0.0042158 -0.357602 0
-8.76737e-05 -0.365348 0
-0.00368742 -0.37402 0
-0.00583353 -0.383583 0
-0.00651166 -0.393351 0
-0.00615434 -0.402612 0
-0.00528451 -0.411128 0
-0.00427631 -0.41913 0
-0.00328557 -0.426956 0
-0.00230619 -0.434733 0
-0.00127308 -0.442282 0
-0.000147861 -0.449247 0
0.0010467 -0.455288 0
0.00223659 -0.460222 0
0.00332551 -0.464048 0
0.00422257 -0.466897 0
0.00486084 -0.468957 0
0.00520603 -0.470414 0
0.00525817 -0.471419 0
0.00504797 -0.472082 0
0.00462936 -0.472488 0
0.0040695 -0.472698 0
0.00343793 -0.472767 0
0.00279717 -0.47274 0
0.00219613 -0.472655 0
0.0016673 -0.472544 0
0.00122731 -0.472427 0
0.000879845 -0.47232 0
0.000619844 -0.472229 0
0.000437704 -0.472157 0
0.000322454 -0.472106 0
0.000262132 -0.472076 0
0.00673925 -0.0361209 0
-0.000636245 0.0482579 0
-0.0145319 0.00746285 0
-0.0179116 -0.0175734 0
-0.026332 -0.0280042 0
0.0175367 -0.0247753 0
0.000600871 -0.0699484 0
-0.0174197 -0.0614225 0
0.000427109 -0.0840052 0
0.0466086 -0.105573 0
0.00313624 -0.0830556 0
-0.0916185 0.0746003 0
0.122389 -0.101951 0
-0.0287632 0.0308516 0
-0.026652 0.0134989 0
-0.0413149 0.0124893 0
-0.0310983 -0.00128474 0
-0.0022098 -0.105077 0
0.0332154 -0.143447 0
-0.0100744 -0.0638783 0
-0.0251827 -0.0628382 0
0.00618134 -0.10357 0
-0.0127642 -0.0912785 0
0.010487 -0.103934 0
0.0224406 -0.0980185 0
-0.0298537 -0.0353599 0
-0.0496826 -0.0774713 0
0.0040086 -0.13695 0
0.0333759 -0.107932 0
-0.0219657 -0.093854 0
-0.0301478 -0.144553 0
0.020528 -0.157704 0
0.00954167 -0.137446 0
-0.0193249 -0.153281 0
-0.0152545 -0.163516 0
-0.00790984 -0.155468 0
0.000325548 -0.161464 0
-0.00159153 -0.182418 0
-0.00940681 -0.18915 0
0.0030535 -0.181262 0
0.0126541 -0.184806 0
-0.00302937 -0.199094 0
-0.0107369 -0.208462 0
0.00424591 -0.209587 0
0.0114931 -0.209504 0
0.00181202 -0.212534 0
-0.00498499 -0.221411 0
-0.00119927 -0.235094 0
0.00552139 -0.245379 0
0.00825188 -0.246872 0
0.00388516 -0.248561 0
-0.00592987 -0.259562 0
-0.0135386 -0.271883 0
-0.0120731 -0.276349 0
-0.0038172 -0.276869 0
0.00224424 -0.282378 0
0.00102928 -0.295169 0
-0.00413625 -0.30937 0
-0.00734306 -0.319639 0
-0.00688345 -0.326253 0
-0.00506483 -0.331069 0
-0.00380299 -0.334391 0
-0.00259536 -0.336129 0
-0.000238972 -0.335861 0
0.00326622 -0.335986 0
0.00654635 -0.338516 0
0.0080196 -0.343481 0
0.0070042 -0.349802 0
0.00399137 -0.35681 0
0.00018337 -0.364651 0
-0.00319271 -0.373614 0
-0.0053778 -0.38346 0
-0.00622752 -0.393452 0
-0.00604809 -0.402892 0
-0.00529244 -0.411545 0
-0.00432143 -0.419624 0
-0.00331637 -0.427462 0
-0.00230819 -0.435202 0
-0.00125776 -0.442693 0
-0.000134236 -0.449605 0
0.00104479 -0.455608 0
0.00221425 -0.460509 0
0.00328478 -0.464294 0
0.004169 -0.467083 0
0.00480097 -0.469065 0
0.00514628 -0.470431 0
0.0052043 -0.471345 0
0.00500468 -0.471931 0
0.00459972 -0.472281 0
0.00405455 -0.472462 0
0.00343668 -0.472525 0
0.00280702 -0.472513 0
0.00221363 -0.472456 0
0.00168892 -0.472378 0
0.00125005 -0.472297 0
0.000901629 -0.472222 0
0.000639583 -0.472159 0
0.000455242 -0.47211 0
0.00033831 -0.472076 0
0.000276549 -0.472058 0
-0.00593418 -0.0421697 0
-0.00272468 -0.0240869 0
0.00514292 -0.099266 0
-0.00424533 -0.00137333 0
0.00145019 -0.0905079 0
0.0273999 -0.0207599 0
-0.00134779 -0.0920817 0
0.0189256 -0.0320707 0
-0.0389501 0.0103458 0
0.0162328 0.0409584 0
-0.0190305 -0.0573346 0
-0.0321604 -0.0822338 0
0.0367717 0.0853197 0
-0.118436 -0.0986969 0
0.0450128 -0.121865 0
-0.00505678 0.0526629 0
-0.0182605 -0.10574 0
0.0229674 -0.079549 0
0.0201173 -0.0543873 0
-0.0179687 -0.0345163 0
0.0187564 -0.0722957 0
0.0307025 -0.050199 0
-0.0283867 -0.00770252 0
-0.0496891 -0.0929144 0
0.00682735 -0.154515 0
0.0293535 -0.115134 0
-0.0104747 -0.0631539 0
-0.0179604 -0.0878761 0
-0.00843822 -0.103446 0
-0.0205479 -0.125303 0
-0.00394051 -0.155349 0
0.0121937 -0.137034 0
-0.00100195 -0.143417 0
-0.00693363 -0.157095 0
-0.0107955 -0.148329 0
-0.0139722 -0.150598 0
-0.00333571 -0.168262 0
-0.00116771 -0.183357 0
-0.00535112 -0.193421 0
0.0054234 -0.190236 0
0.00838882 -0.182929 0
-0.00675891 -0.195524 0
-0.00840773 -0.211371 0
0.00621236 -0.210874 0
0.00945817 -0.206128 0
0.000483387 -0.210489 0
-0.00308522 -0.221298 0
0.000607081 -0.235329 0
0.0038893 -0.245568 0
0.00444274 -0.24782 0
0.0022648 -0.249655 0
-0.00334213 -0.257997 0
-0.00949295 -0.268728 0
-0.0107288 -0.275324 0
-0.00604134 -0.279718 0
-0.00068747 -0.286702 0
0.000258747 -0.297031 0
-0.0026553 -0.308225 0
-0.00550193 -0.318541 0
-0.00621222 -0.326454 0
-0.00546549 -0.331232 0
-0.00421975 -0.333975 0
-0.0024378 -0.335842 0
0.000160424 -0.336331 0
0.00329198 -0.33705 0
0.00599979 -0.339507 0
0.00720982 -0.343885 0
0.00638461 -0.349577 0
0.00380678 -0.35623 0
0.000382985 -0.364014 0
-0.00282163 -0.373095 0
-0.00503597 -0.383129 0
-0.00601491 -0.393339 0
-0.00596856 -0.403003 0
-0.00529931 -0.411849 0
-0.00436059 -0.42005 0
-0.00335095 -0.427927 0
-0.00232505 -0.435643 0
-0.00126104 -0.443083 0
-0.00013381 -0.449946 0
0.00104132 -0.455914 0
0.00220387 -0.460787 0
0.00326778 -0.464535 0
0.0041471 -0.467269 0
0.0047762 -0.469175 0
0.0051208 -0.470452 0
0.00518047 -0.471277 0
0.00498486 -0.471788 0
0.0045859 -0.472085 0
0.00404785 -0.472238 0
0.00343711 -0.472298 0
0.00281358 -0.472301 0
0.00222461 -0.472271 0
0.00170243 -0.472226 0
0.00126437 -0.472177 0
0.000915514 -0.472133 0
0.000652352 -0.472095 0
0.000466722 -0.472066 0
0.000348601 -0.472047 0
0.000285484 -0.472036 0
-0.00235567 0.0435323 0
-0.0234414 0.040229 0
-0.0129114 0.0577434 0
0.0271244 0.114679 0
0.00085808 0.0550672 0
-0.00953563 0.161007 0
0.0045124 0.0437056 0
0.00790323 0.147732 0
-0.014595 0.0540134 0
0.0554012 0.0514747 0
-0.0132192 0.0922236 0
-0.0510347 -0.0186217 0
0.109149 0.045042 0
-0.0139627 -0.098476 0
0.00578895 -0.00358417 0
0.0313659 -0.0768023 0
-0.0426428 -0.0988782 0
0.0105167 -0.0221342 0
0.000216433 0.0292823 0
-0.0446062 -0.101045 0
0.00567916 -0.040051 0
-0.000945016 -0.0344536 0
-0.00403773 -0.13645 0
0.0216085 -0.0582665 0
0.00052323 -0.0771565 0
-0.00120749 -0.124281 0
0.00676645 -0.0872241 0
-0.00662491 -0.111901 0
-0.0176019 -0.125182 0
-0.0157182 -0.121183 0
-0.00323783 -0.131691 0
-0.00203599 -0.131792 0
-0.00867506 -0.137671 0
-0.00409272 -0.149043 0
-0.00253024 -0.158989 0
-0.00513236 -0.162677 0
-0.00439855 -0.165083 0
-0.00774854 -0.179024 0
-0.00871577 -0.190967 0
0.00258757 -0.193149 0
0.0083943 -0.188755 0
-0.00160051 -0.195541 0
-0.00464703 -0.209964 0
0.00432468 -0.212604 0
0.00576367 -0.205653 0
-0.000809219 -0.207631 0
-0.00198096 -0.220213 0
0.00214843 -0.234205 0
0.0036071 -0.244746 0
0.00174404 -0.249162 0
-0.000123938 -0.251219 0
-0.00238489 -0.256756 0
-0.00604444 -0.265733 0
-0.00853249 -0.274379 0
-0.00699791 -0.282169 0
-0.00297789 -0.290322 0
-0.000641209 -0.299227 0
-0.00166777 -0.30858 0
-0.00414678 -0.317895 0
-0.00574137 -0.326053 0
-0.00577671 -0.330938 0
-0.00452056 -0.333622 0
-0.00231711 -0.3357 0
0.000458536 -0.336648 0
0.00332677 -0.337729 0
0.0056197 -0.34019 0
0.00663486 -0.344246 0
0.00594563 -0.349499 0
0.00367248 -0.355796 0
0.000505501 -0.363402 0
-0.00259108 -0.372488 0
-0.00482624 -0.382675 0
-0.0058853 -0.393128 0
-0.00591789 -0.403061 0
-0.00530048 -0.412134 0
-0.00438823 -0.420478 0
-0.00338768 -0.428408 0
-0.00235984 -0.43611 0
-0.00128879 -0.443509 0
-0.000152955 -0.450332 0
0.0010307 -0.45627 0
0.0022005 -0.461114 0
0.00326934 -0.464822 0
0.00415079 -0.467493 0
0.00477958 -0.469313 0
0.00512246 -0.470491 0
0.00518025 -0.471219 0
0.00498359 -0.471648 0
0.00458485 -0.471888 0
0.00404815 -0.472013 0
0.00343941 -0.472069 0
0.00281793 -0.472087 0
0.00223061 -0.472085 0
0.0017094 -0.472073 0
0.00127163 -0.472058 0
0.00092254 -0.472044 0
0.000658825 -0.472032 0
0.000472538 -0.472022 0
0.000353762 -0.472016 0
0.000289979 -0.472012 0
-0.00632744 0.0347925 0
-0.0234125 0.0486299 0
0.0217629 0.0504563 0
0.0221755 0.0720028 0
-0.0420276 0.0335211 0
-0.0325771 0.180795 0
0.00352371 0.0705991 0
-0.0063078 0.121182 0
0.0040773 0.0622784 0
0.0179279 -0.00928407 0
0.00199606 0.0792934 0
-0.0199981 -0.0105649 0
0.00547336 0.0607378 0
-0.0147102 -0.0983182 0
-0.0236644 0.0359588 0
0.00232756 -0.0830252 0
-0.0358673 0.00805595 0
0.0225517 -0.0265432 0
0.00993968 -0.0644725 0
-0.0275574 -0.0980597 0
0.0162471 -0.150541 0
0.0072102 -0.0690819 0
-0.0190739 -0.0949709 0
0.0147086 -0.0805298 0
0.00887058 -0.0357821 0
-0.0398016 -0.0645139 0
-0.0221282 -0.127162 0
0.0245852 -0.165853 0
0.0157625 -0.11936 0
-0.0139435 -0.0920757 0
-0.014652 -0.121953 0
-0.00719187 -0.136282 0
-0.00661024 -0.136199 0
-0.00432903 -0.150247 0
-0.00414915 -0.167762 0
-0.00356756 -0.174535 0
-0.00212576 -0.163022 0
-0.00923844 -0.164357 0
-0.0135904 -0.188067 0
-0.00204968 -0.199471 0
0.00906814 -0.19419 0
0.00617517 -0.193761 0
0.000674208 -0.208887 0
0.000989215 -0.213985 0
0.000810327 -0.207604 0
-0.00168836 -0.208521 0
-0.000636758 -0.217401 0
0.00314242 -0.230293 0
0.00312234 -0.243419 0
-0.00039361 -0.249875 0
-0.00237607 -0.251932 0
-0.0024209 -0.256855 0
-0.00357801 -0.26511 0
-0.00596169 -0.273768 0
-0.00654486 -0.283092 0
-0.0041691 -0.292905 0
-0.00150117 -0.302018 0
-0.00141443 -0.30975 0
-0.0035843 -0.317403 0
-0.00565319 -0.325168 0
-0.00604091 -0.330408 0
-0.00464628 -0.33345 0
-0.00214498 -0.335739 0
0.000702564 -0.336872 0
0.00336978 -0.338151 0
0.00540879 -0.340699 0
0.00632996 -0.344616 0
0.00573016 -0.349527 0
0.00360861 -0.355431 0
0.000542822 -0.362769 0
-0.00252792 -0.371813 0
-0.00477741 -0.38217 0
-0.0058532 -0.392911 0
-0.0058944 -0.403139 0
-0.00528732 -0.412443 0
-0.00439525 -0.420922 0
-0.00341955 -0.4289 0
-0.00240908 -0.436597 0
-0.0013402 -0.443969 0
-0.000191814 -0.450767 0
0.0010127 -0.456682 0
0.00220367 -0.461498 0
0.00328823 -0.465158 0
0.00417779 -0.467754 0
0.00480793 -0.469477 0
0.0051477 -0.470547 0
0.00520035 -0.471171 0
0.0049983 -0.471514 0
0.0045949 -0.471694 0
0.00405464 -0.471787 0
0.00344341 -0.471839 0
0.00282029 -0.471873 0
0.00223196 -0.471898 0
0.00171014 -0.47192 0
0.00127204 -0.471939 0
0.000922751 -0.471955 0
0.000658934 -0.471968 0
0.000472595 -0.471978 0
0.000353793 -0.471984 0
0.000289999 -0.471988 0
0.0191697 -0.0542915 0
0.016866 -0.0543122 0
0.0405685 -0.09875 0
-0.0254613 -0.0754096 0
0.00394602 -0.208752 0
0.0315603 -0.169174 0