<?xml version='1.0' encoding='UTF-8'?>
<VTKFile byte_order='LittleEndian' version='0.1' type = 'UnstructuredGrid'>
<UnstructuredGrid>
<FieldData>
<DataArray type='Float64' Name='Time' NumberOfComponents='1' NumberOfTuples='1' format='ascii'>
0.64
</DataArray>
</FieldData>
<Piece NumberOfCells='808' NumberOfPoints='808'>
<Points>
<DataArray NumberOfComponents='3' type='Float64' Name='position' format='ascii'>
0 0 0
0 0.025 0
0 0.05 0
0 0.075 0
0 0.1 0
0 0.125 0
0 0.15 0
0 0.175 0
0.025 0 0
0.05 0 0
0.075 0 0
0.1 0 0
0.125 0 0
0.15 0 0
0.175 0 0
0.2 0 0
0.225 0 0
0.25 0 0
0.275 0 0
0.3 0 0
0.325 0 0
0.35 0 0
0.376457 -0.00998921 0
0.401585 -0.0155209 0
0.426705 -0.0199113 0
0.451724 -0.023626 0
0.476699 -0.0268241 0
0.501632 -0.0295934 0
0.526505 -0.0319684 0
0.551377 -0.033943 0
0.576254 -0.0356003 0
0.60111 -0.0369742 0
0.62596 -0.0380508 0
0.650828 -0.038876 0
0.675711 -0.0395257 0
0.700592 -0.0400333 0
0.725466 -0.0403964 0
0.750343 -0.0406199 0
0.775234 -0.0407332 0
0.800149 -0.0407772 0
0.825088 -0.0407867 0
0.850049 -0.0407834 0
0.875025 -0.0407778 0
0.900012 -0.0407735 0
0.925006 -0.0407708 0
0.950002 -0.0407694 0
0.975001 -0.0407687 0
1 -0.0407684 0
1.025 -0.0407683 0
1.05 -0.0407682 0
1.075 -0.0407682 0
1.1 -0.0407682 0
1.125 -0.0407682 0
1.15 -0.0407682 0
1.175 -0.0407682 0
1.2 -0.0407682 0
1.225 -0.0407682 0
1.25 -0.0407682 0
1.275 -0.0407682 0
1.3 -0.0407682 0
1.325 -0.0407682 0
1.35 -0.0407682 0
1.375 -0.0407682 0
1.4 -0.0407682 0
1.425 -0.0407682 0
1.45 -0.0407682 0
1.475 -0.0407682 0
1.5 -0.0407682 0
1.525 -0.0407682 0
1.55 -0.0407682 0
1.575 -0.0407682 0
1.6 -0.0407682 0
1.625 -0.0407682 0
1.65 -0.0407682 0
1.675 -0.0407682 0
1.7 -0.0407682 0
1.725 -0.0407682 0
1.75 -0.0407682 0
1.775 -0.0407682 0
1.8 -0.0407682 0
1.825 -0.0407682 0
1.85 -0.0407682 0
1.875 -0.0407682 0
1.9 -0.0407682 0
1.925 -0.0407682 0
1.95 -0.0407682 0
1.975 -0.0407682 0
2 -0.0407682 0
2.025 -0.0407682 0
2.05 -0.0407682 0
2.075 -0.0407682 0
2.1 -0.0407682 0
2.125 -0.0407682 0
2.15 -0.0407682 0
2.175 -0.0407682 0
2.2 -0.0407682 0
2.225 -0.0407682 0
2.25 -0.0407682 0
2.275 -0.0407682 0
2.3 -0.0407682 0
2.325 -0.0407682 0
2.35 -0.0407682 0
2.375 -0.0407682 0
2.4 -0.0407682 0
2.425 -0.0407682 0
2.45 -0.0407682 0
2.475 -0.0407682 0
2.5 -0.0407682 0
0.0249338 0.0246196 0
0.0499139 0.0244149 0
0.0749046 0.0242392 0
0.0998971 0.0241049 0
0.124903 0.0239479 0
0.149906 0.0238196 0
0.174894 0.0236783 0
0.199897 0.0234726 0
0.22491 0.023254 0
0.249918 0.0229733 0
0.274945 0.0225213 0
0.300049 0.021815 0
0.325324 0.0205883 0
0.350991 0.0180783 0
0.376579 0.0133093 0
0.401675 0.00875024 0
0.426746 0.00471607 0
0.45176 0.00116864 0
0.476729 -0.00192681 0
0.501653 -0.00461575 0
0.526534 -0.00693148 0
0.551401 -0.0088826 0
0.576264 -0.010521 0
0.601117 -0.0118805 0
0.625969 -0.0129647 0
0.650834 -0.013808 0
0.675711 -0.0144676 0
0.70059 -0.0149762 0
0.725467 -0.0153406 0
0.750347 -0.0155712 0
0.775241 -0.015696 0
0.800156 -0.0157518 0
0.825094 -0.015771 0
0.850053 -0.0157746 0
0.875028 -0.0157732 0
0.900014 -0.0157712 0
0.925007 -0.0157697 0
0.950003 -0.0157689 0
0.975001 -0.0157685 0
1 -0.0157683 0
1.025 -0.0157682 0
1.05 -0.0157682 0
1.075 -0.0157682 0
1.1 -0.0157682 0
1.125 -0.0157682 0
1.15 -0.0157682 0
1.175 -0.0157682 0
1.2 -0.0157682 0
1.225 -0.0157682 0
1.25 -0.0157682 0
1.275 -0.0157682 0
1.3 -0.0157682 0
1.325 -0.0157682 0
1.35 -0.0157682 0
1.375 -0.0157682 0
1.4 -0.0157682 0
1.425 -0.0157682 0
1.45 -0.0157682 0
1.475 -0.0157682 0
1.5 -0.0157682 0
1.525 -0.0157682 0
1.55 -0.0157682 0
1.575 -0.0157682 0
1.6 -0.0157682 0
1.625 -0.0157682 0
1.65 -0.0157682 0
1.675 -0.0157682 0
1.7 -0.0157682 0
1.725 -0.0157682 0
1.75 -0.0157682 0
1.775 -0.0157682 0
1.8 -0.0157682 0
1.825 -0.0157682 0
1.85 -0.0157682 0
1.875 -0.0157682 0
1.9 -0.0157682 0
1.925 -0.0157682 0
1.95 -0.0157682 0
1.975 -0.0157682 0
2 -0.0157682 0
2.025 -0.0157682 0
2.05 -0.0157682 0
2.075 -0.0157682 0
2.1 -0.0157682 0
2.125 -0.0157682 0
2.15 -0.0157682 0
2.175 -0.0157682 0
2.2 -0.0157682 0
2.225 -0.0157682 0
2.25 -0.0157682 0
2.275 -0.0157682 0
2.3 -0.0157682 0
2.325 -0.0157682 0
2.35 -0.0157682 0
2.375 -0.0157682 0
2.4 -0.0157682 0
2.425 -0.0157682 0
2.45 -0.0157682 0
2.475 -0.0157682 0
2.5 -0.0157682 0
0.0249322 0.0494773 0
0.0499044 0.049169 0
0.0748878 0.0488904 0
0.0998718 0.048685 0
0.124875 0.0484285 0
0.149876 0.0482152 0
0.174867 0.0479729 0
0.199874 0.0476188 0
0.224895 0.047236 0
0.249929 0.0467444 0
0.275012 0.0459783 0
0.3002 0.0448549 0
0.325553 0.0431674 0
0.351075 0.0405257 0
0.376504 0.0368338 0
0.401681 0.0329231 0
0.426762 0.0292425 0
0.451785 0.0259 0
0.476754 0.0229308 0
0.501678 0.0203366 0
0.526563 0.0180896 0
0.551427 0.0161779 0
0.576282 0.0145641 0
0.601132 0.0132157 0
0.625983 0.0121235 0
0.650843 0.0112626 0
0.675713 0.0105898 0
0.70059 0.0100751 0
0.725468 0.00970609 0
0.750351 0.00946836 0
0.775246 0.00933407 0
0.800161 0.00926855 0
0.825098 0.00924149 0
0.850056 0.0092325 0
0.87503 0.00923052 0
0.900015 0.00923064 0
0.925007 0.00923111 0
0.950003 0.00923145 0
0.975001 0.00923165 0
1 0.00923174 0
1.025 0.00923178 0
1.05 0.00923179 0
1.075 0.0092318 0
1.1 0.0092318 0
1.125 0.0092318 0
1.15 0.0092318 0
1.175 0.0092318 0
1.2 0.0092318 0
1.225 0.0092318 0
1.25 0.0092318 0
1.275 0.0092318 0
1.3 0.0092318 0
1.325 0.0092318 0
1.35 0.0092318 0
1.375 0.0092318 0
1.4 0.0092318 0
1.425 0.0092318 0
1.45 0.0092318 0
1.475 0.0092318 0
1.5 0.0092318 0
1.525 0.0092318 0
1.55 0.0092318 0
1.575 0.0092318 0
1.6 0.0092318 0
1.625 0.0092318 0
1.65 0.0092318 0
1.675 0.0092318 0
1.7 0.0092318 0
1.725 0.0092318 0
1.75 0.0092318 0
1.775 0.0092318 0
1.8 0.0092318 0
1.825 0.0092318 0
1.85 0.0092318 0
1.875 0.0092318 0
1.9 0.0092318 0
1.925 0.0092318 0
1.95 0.0092318 0
1.975 0.0092318 0
2 0.0092318 0
2.025 0.0092318 0
2.05 0.0092318 0
2.075 0.0092318 0
2.1 0.0092318 0
2.125 0.0092318 0
2.15 0.0092318 0
2.175 0.0092318 0
2.2 0.0092318 0
2.225 0.0092318 0
2.25 0.0092318 0
2.275 0.0092318 0
2.3 0.0092318 0
2.325 0.0092318 0
2.35 0.0092318 0
2.375 0.0092318 0
2.4 0.0092318 0
2.425 0.0092318 0
2.45 0.0092318 0
2.475 0.0092318 0
2.5 0.0092318 0
0.0249477 0.0743803 0
0.0499219 0.0739932 0
0.0749006 0.073677 0
0.0998873 0.0734404 0
0.124883 0.073115 0
0.149877 0.0728351 0
0.174879 0.0724999 0
0.199894 0.0720159 0
0.224914 0.0714747 0
0.249972 0.0707758 0
0.275106 0.0697419 0
0.300327 0.0683191 0
0.325651 0.0664192 0
0.351043 0.0638419 0
0.376389 0.0606369 0
0.401608 0.0571639 0
0.42673 0.0537711 0
0.451776 0.0506041 0
0.476753 0.0477675 0
0.501684 0.0452698 0
0.526576 0.0430912 0
0.551441 0.0412264 0
0.576296 0.0396411 0
0.601148 0.0383045 0
0.625999 0.037208 0
0.650855 0.036333 0
0.67572 0.0356461 0
0.700594 0.0351218 0
0.725471 0.0347461 0
0.750354 0.0345015 0
0.775249 0.0343593 0
0.800164 0.034286 0
0.8251 0.0342524 0
0.850057 0.0342387 0
0.875031 0.0342338 0
0.900016 0.0342323 0
0.925007 0.0342319 0
0.950003 0.0342318 0
0.975001 0.0342318 0
1 0.0342318 0
1.025 0.0342318 0
1.05 0.0342318 0
1.075 0.0342318 0
1.1 0.0342318 0
1.125 0.0342318 0
1.15 0.0342318 0
1.175 0.0342318 0
1.2 0.0342318 0
1.225 0.0342318 0
1.25 0.0342318 0
1.275 0.0342318 0
1.3 0.0342318 0
1.325 0.0342318 0
1.35 0.0342318 0
1.375 0.0342318 0
1.4 0.0342318 0
1.425 0.0342318 0
1.45 0.0342318 0
1.475 0.0342318 0
1.5 0.0342318 0
1.525 0.0342318 0
1.55 0.0342318 0
1.575 0.0342318 0
1.6 0.0342318 0
1.625 0.0342318 0
1.65 0.0342318 0
1.675 0.0342318 0
1.7 0.0342318 0
1.725 0.0342318 0
1.75 0.0342318 0
1.775 0.0342318 0
1.8 0.0342318 0
1.825 0.0342318 0
1.85 0.0342318 0
1.875 0.0342318 0
1.9 0.0342318 0
1.925 0.0342318 0
1.95 0.0342318 0
1.975 0.0342318 0
2 0.0342318 0
2.025 0.0342318 0
2.05 0.0342318 0
2.075 0.0342318 0
2.1 0.0342318 0
2.125 0.0342318 0
2.15 0.0342318 0
2.175 0.0342318 0
2.2 0.0342318 0
2.225 0.0342318 0
2.25 0.0342318 0
2.275 0.0342318 0
2.3 0.0342318 0
2.325 0.0342318 0
2.35 0.0342318 0
2.375 0.0342318 0
2.4 0.0342318 0
2.425 0.0342318 0
2.45 0.0342318 0
2.475 0.0342318 0
2.5 0.0342318 0
0.0249529 0.0993418 0
0.0499281 0.098932 0
0.0749136 0.0985898 0
0.0999123 0.0983045 0
0.124895 0.0979576 0
0.149883 0.0976344 0
0.174911 0.0972142 0
0.199941 0.0966317 0
0.224963 0.0959498 0
0.250037 0.0950566 0
0.275197 0.0938227 0
0.300421 0.0922234 0
0.32569 0.0902162 0
0.350997 0.0877019 0
0.376293 0.0847187 0
0.401527 0.0815086 0
0.426679 0.0783194 0
0.451742 0.075325 0
0.476735 0.0726178 0
0.501676 0.0702012 0
0.52657 0.0680822 0
0.551438 0.0662599 0
0.5763 0.0647001 0
0.601159 0.0633771 0
0.626013 0.0622823 0
0.650868 0.0613984 0
0.675731 0.0606988 0
0.700602 0.0601643 0
0.725476 0.0597813 0
0.750357 0.0595303 0
0.775251 0.0593814 0
0.800164 0.0593014 0
0.8251 0.0592622 0
0.850057 0.0592444 0
0.87503 0.0592368 0
0.900015 0.0592338 0
0.925007 0.0592326 0
0.950003 0.0592321 0
0.975001 0.0592319 0
1 0.0592318 0
1.025 0.0592318 0
1.05 0.0592318 0
1.075 0.0592318 0
1.1 0.0592318 0
1.125 0.0592318 0
1.15 0.0592318 0
1.175 0.0592318 0
1.2 0.0592318 0
1.225 0.0592318 0
1.25 0.0592318 0
1.275 0.0592318 0
1.3 0.0592318 0
1.325 0.0592318 0
1.35 0.0592318 0
1.375 0.0592318 0
1.4 0.0592318 0
1.425 0.0592318 0
1.45 0.0592318 0
1.475 0.0592318 0
1.5 0.0592318 0
1.525 0.0592318 0
1.55 0.0592318 0
1.575 0.0592318 0
1.6 0.0592318 0
1.625 0.0592318 0
1.65 0.0592318 0
1.675 0.0592318 0
1.7 0.0592318 0
1.725 0.0592318 0
1.75 0.0592318 0
1.775 0.0592318 0
1.8 0.0592318 0
1.825 0.0592318 0
1.85 0.0592318 0
1.875 0.0592318 0
1.9 0.0592318 0
1.925 0.0592318 0
1.95 0.0592318 0
1.975 0.0592318 0
2 0.0592318 0
2.025 0.0592318 0
2.05 0.0592318 0
2.075 0.0592318 0
2.1 0.0592318 0
2.125 0.0592318 0
2.15 0.0592318 0
2.175 0.0592318 0
2.2 0.0592318 0
2.225 0.0592318 0
2.25 0.0592318 0
2.275 0.0592318 0
2.3 0.0592318 0
2.325 0.0592318 0
2.35 0.0592318 0
2.375 0.0592318 0
2.4 0.0592318 0
2.425 0.0592318 0
2.45 0.0592318 0
2.475 0.0592318 0
2.5 0.0592318 0
0.0249599 0.124276 0
0.0499423 0.123818 0
0.0749287 0.123422 0
0.0999159 0.123085 0
0.124888 0.122748 0
0.14989 0.122388 0
0.174943 0.121893 0
0.19999 0.121253 0
0.22503 0.120464 0
0.250124 0.119403 0
0.275282 0.118029 0
0.300473 0.116355 0
0.325685 0.114321 0
0.350934 0.11185 0
0.376205 0.108993 0
0.401448 0.105952 0
0.426623 0.102936 0
0.451712 0.100095 0
0.476724 0.0974909 0
0.501667 0.0951434 0
0.526558 0.0930753 0
0.551429 0.0912826 0
0.576298 0.0897396 0
0.601162 0.0884296 0
0.62602 0.087341 0
0.650879 0.0864532 0
0.675745 0.0857447 0
0.700613 0.0852021 0
0.725484 0.0848132 0
0.75036 0.0845567 0
0.77525 0.0844019 0
0.800162 0.0843158 0
0.825098 0.0842714 0
0.850055 0.0842498 0
0.875029 0.0842397 0
0.900014 0.0842352 0
0.925007 0.0842332 0
0.950003 0.0842324 0
0.975001 0.084232 0
1 0.0842319 0
1.025 0.0842318 0
1.05 0.0842318 0
1.075 0.0842318 0
1.1 0.0842318 0
1.125 0.0842318 0
1.15 0.0842318 0
1.175 0.0842318 0
1.2 0.0842318 0
1.225 0.0842318 0
1.25 0.0842318 0
1.275 0.0842318 0
1.3 0.0842318 0
1.325 0.0842318 0
1.35 0.0842318 0
1.375 0.0842318 0
1.4 0.0842318 0
1.425 0.0842318 0
1.45 0.0842318 0
1.475 0.0842318 0
1.5 0.0842318 0
1.525 0.0842318 0
1.55 0.0842318 0
1.575 0.0842318 0
1.6 0.0842318 0
1.625 0.0842318 0
1.65 0.0842318 0
1.675 0.0842318 0
1.7 0.0842318 0
1.725 0.0842318 0
1.75 0.0842318 0
1.775 0.0842318 0
1.8 0.0842318 0
1.825 0.0842318 0
1.85 0.0842318 0
1.875 0.0842318 0
1.9 0.0842318 0
1.925 0.0842318 0
1.95 0.0842318 0
1.975 0.0842318 0
2 0.0842318 0
2.025 0.0842318 0
2.05 0.0842318 0
2.075 0.0842318 0
2.1 0.0842318 0
2.125 0.0842318 0
2.15 0.0842318 0
2.175 0.0842318 0
2.2 0.0842318 0
2.225 0.0842318 0
2.25 0.0842318 0
2.275 0.0842318 0
2.3 0.0842318 0
2.325 0.0842318 0
2.35 0.0842318 0
2.375 0.0842318 0
2.4 0.0842318 0
2.425 0.0842318 0
2.45 0.0842318 0
2.475 0.0842318 0
2.5 0.0842318 0
0.0249698 0.149225 0
0.0499557 0.148725 0
0.0749329 0.148325 0
0.0999154 0.147953 0
0.124894 0.147608 0
0.149905 0.147202 0
0.174966 0.146648 0
0.200017 0.14599 0
0.225079 0.145137 0
0.250205 0.143956 0
0.275358 0.142491 0
0.300498 0.140789 0
0.325651 0.13875 0
0.350863 0.136289 0
0.376126 0.133485 0
0.401383 0.130535 0
0.42658 0.127632 0
0.451689 0.124894 0
0.47671 0.122372 0
0.501655 0.120094 0
0.526552 0.11807 0
0.551429 0.116295 0
0.576297 0.114762 0
0.601157 0.113462 0
0.626018 0.11238 0
0.650885 0.111492 0
0.675757 0.11078 0
0.700626 0.110234 0
0.725491 0.109842 0
0.750361 0.109582 0
0.775247 0.109422 0
0.800157 0.10933 0
0.825093 0.109281 0
0.850052 0.109255 0
0.875027 0.109243 0
0.900013 0.109237 0
0.925006 0.109234 0
0.950003 0.109233 0
0.975001 0.109232 0
1 0.109232 0
1.025 0.109232 0
1.05 0.109232 0
1.075 0.109232 0
1.1 0.109232 0
1.125 0.109232 0
1.15 0.109232 0
1.175 0.109232 0
1.2 0.109232 0
1.225 0.109232 0
1.25 0.109232 0
1.275 0.109232 0
1.3 0.109232 0
1.325 0.109232 0
1.35 0.109232 0
1.375 0.109232 0
1.4 0.109232 0
1.425 0.109232 0
1.45 0.109232 0
1.475 0.109232 0
1.5 0.109232 0
1.525 0.109232 0
1.55 0.109232 0
1.575 0.109232 0
1.6 0.109232 0
1.625 0.109232 0
1.65 0.109232 0
1.675 0.109232 0
1.7 0.109232 0
1.725 0.109232 0
1.75 0.109232 0
1.775 0.109232 0
1.8 0.109232 0
1.825 0.109232 0
1.85 0.109232 0
1.875 0.109232 0
1.9 0.109232 0
1.925 0.109232 0
1.95 0.109232 0
1.975 0.109232 0
2 0.109232 0
2.025 0.109232 0
2.05 0.109232 0
2.075 0.109232 0
2.1 0.109232 0
2.125 0.109232 0
2.15 0.109232 0
2.175 0.109232 0
2.2 0.109232 0
2.225 0.109232 0
2.25 0.109232 0
2.275 0.109232 0
2.3 0.109232 0
2.325 0.109232 0
2.35 0.109232 0
2.375 0.109232 0
2.4 0.109232 0
2.425 0.109232 0
2.45 0.109232 0
2.475 0.109232 0
2.5 0.109232 0
0.0249574 0.174254 0
0.0499428 0.173761 0
0.0749268 0.173397 0
0.0999459 0.172987 0
0.12493 0.172626 0
0.149923 0.172182 0
0.174978 0.171577 0
0.200013 0.170931 0
0.225085 0.170048 0
0.25025 0.168786 0
0.275412 0.16728 0
0.30051 0.165573 0
0.325617 0.163507 0
0.350811 0.160998 0
0.376083 0.158168 0
0.401357 0.155236 0
0.426561 0.152384 0
0.451669 0.149711 0
0.476686 0.14726 0
0.501641 0.145044 0
0.526558 0.143058 0
0.551443 0.1413 0
0.5763 0.139776 0
0.601149 0.138485 0
0.62601 0.137406 0
0.650888 0.136518 0
0.675767 0.135807 0
0.700637 0.135264 0
0.725496 0.134874 0
0.750359 0.134612 0
0.775241 0.134447 0
0.800149 0.134348 0
0.825086 0.134292 0
0.850047 0.134262 0
0.875024 0.134246 0
0.900011 0.134238 0
0.925005 0.134235 0
0.950002 0.134233 0
0.975001 0.134232 0
1 0.134232 0
1.025 0.134232 0
1.05 0.134232 0
1.075 0.134232 0
1.1 0.134232 0
1.125 0.134232 0
1.15 0.134232 0
1.175 0.134232 0
1.2 0.134232 0
1.225 0.134232 0
1.25 0.134232 0
1.275 0.134232 0
1.3 0.134232 0
1.325 0.134232 0
1.35 0.134232 0
1.375 0.134232 0
1.4 0.134232 0
1.425 0.134232 0
1.45 0.134232 0
1.475 0.134232 0
1.5 0.134232 0
1.525 0.134232 0
1.55 0.134232 0
1.575 0.134232 0
1.6 0.134232 0
1.625 0.134232 0
1.65 0.134232 0
1.675 0.134232 0
1.7 0.134232 0
1.725 0.134232 0
1.75 0.134232 0
1.775 0.134232 0
1.8 0.134232 0
1.825 0.134232 0
1.85 0.134232 0
1.875 0.134232 0
1.9 0.134232 0
1.925 0.134232 0
1.95 0.134232 0
1.975 0.134232 0
2 0.134232 0
2.025 0.134232 0
2.05 0.134232 0
2.075 0.134232 0
2.1 0.134232 0
2.125 0.134232 0
2.15 0.134232 0
2.175 0.134232 0
2.2 0.134232 0
2.225 0.134232 0
2.25 0.134232 0
2.275 0.134232 0
2.3 0.134232 0
2.325 0.134232 0
2.35 0.134232 0
2.375 0.134232 0
2.4 0.134232 0
2.425 0.134232 0
2.45 0.134232 0
2.475 0.134232 0
2.5 0.134232 0
</DataArray>
</Points>
<PointData>
<DataArray NumberOfComponents='1' type='Int32' Name='Particle Type' format='ascii'>
0
0
0
0
0
0
0
0
0
0
0
0
0
0
0
0
0
0
0
0
0
0
1
1
1
1
1
1
1
1
1
1
1
1
1
1
1
1
1
1
1
1
1
1
1
1
1
1
1
1
1
1
1
1
1
1
1
1
1
1
1
1
1
1
1
1
1
1
1
1
1
1
1
1
1
1
1
1
1
1
1
1
1
1
1
1
1
1
1
1
1
1
1
1
1
1
1
1
1
1
1
1
1
1
1
1
1
1
1
1
1
1
1
1
1
1
1
1
1
1
1
1
1
1
1
1
1
1
1
1
1
1
1
1
1
1
1
1
1
1
1
1
1
1
1
1
1
1
1
1
1
1
1
1
1
1
1
1
1
1
1
1
1
1
1
1
1
1
1
1
1
1
1
1
1
1
1
1
1
1
1
1
1
1
1
1
1
1
1
1
1
1
1
1
1
1
1
1
1
1
1
1
1
1
1
1
1
1
1
1
1
1
1
1
1
1
1
1
1
1
1
1
1
1
1
1
1
1
1
1
1
1
1
1
1
1
1
1
1
1
1
1
1
1
1
1
1
1
1
1
1
1
1
1
1
1
1
1
1
1
1
1
1
1
1
1
1
1
1
1
1
1
1
1
1
1
1
1
1
1
1
1
1
1
1
1
1
1
1
1
1
1
1
1
1
1
1
1
1
1
1
1
1
1
1
1
1
1
1
1
1
1
1
1
1
1
1
1
1
1
1
1
1
1
1
1
1
1
1
1
1
1
1
1
1
1
1
1
1
1
1
1
1
1
1
1
1
1
1
1
1
1
1
1
1
1
1
1
1
1
1
1
1
1
1
1
1
1
1
1
1
1
1
1
1
1
1
1
1
1
1
1
1
1
1
1
1
1
1
1
1
1
1
1
1
1
1
1
1
1
1
1
1
1
1
1
1
1
1
1
1
1
1
1
1
1
1
1
1
1
1
1
1
1
1
1
1
1
1
1
1
1
1
1
1
1
1
1
1
1
1
1
1
1
1
1
1
1
1
1
1
1
1
1
1
1
1
1
1
1
1
1
1
1
1
1
1
1
1
1
1
1
1
1
1
1
1
1
1
1
1
1
1
1
1
1
1
1
1
1
1
1
1
1
1
1
1
1
1
1
1
1
1
1
1
1
1
1
1
1
1
1
1
1
1
1
1
1
1
1
1
1
1
1
1
1
1
1
1
1
1
1
1
1
1
1
1
1
1
1
1
1
1
1
1
1
1
1
1
1
1
1
1
1
1
1
1
1
1
1
1
1
1
1
1
1
1
1
1
1
1
1
1
1
1
1
1
1
1
1
1
1
1
1
1
1
1
1
1
1
1
1
1
1
1
1
1
1
1
1
1
1
1
1
1
1
1
1
1
1
1
1
1
1
1
1
1
1
1
1
1
1
1
1
1
1
1
1
1
1
1
1
1
1
1
1
1
1
1
1
1
1
1
1
1
1
1
1
1
1
1
1
1
1
1
1
1
1
1
1
1
1
1
1
1
1
1
1
1
1
1
1
1
1
1
1
1
1
1
1
1
1
1
1
1
1
1
1
1
1
1
1
1
1
1
1
1
1
1
1
1
1
1
1
1
1
1
1
1
1
1
1
1
1
1
1
1
1
1
1
1
1
1
1
1
1
1
1
1
1
1
1
1
1
1
1
1
1
1
1
1
1
1
1
1
1
1
1
1
1
1
1
1
1
1
1
1
1
1
1
1
1
1
1
1
1
1
1
1
1
1
1
1
1
1
1
1
1
1
1
1
1
1
1
1
1
1
1
1
1
1
1
1
1
1
1
1
1
1
1
1
1
1
1
1
1
1
1
</DataArray>
<DataArray NumberOfComponents='3' type='Float64' Name='Velocity' format='ascii'>
0 0 0
0 0 0
0 0 0
0 0 0
0 0 0
0 0 0
0 0 0
0 0 0
0 0 0
0 0 0
0 0 0
0 0 0
0 0 0
0 0 0
0 0 0
0 0 0
0 0 0
0 0 0
0 0 0
0 0 0
0 0 0
0 0 0
0.00136075 -0.0114567 0
0.000663817 -0.0181698 0
0.00127319 -0.0246243 0
0.00239843 -0.0318422 0
0.0027485 -0.0412303 0
0.00420252 -0.0504958 0
0.00485707 -0.0614767 0
0.00436373 -0.0719671 0
0.00459564 -0.0808138 0
0.00506416 -0.08998 0
0.0047917 -0.0988258 0
0.00422794 -0.105492 0
0.00407111 -0.110312 0
0.00427854 -0.114727 0
0.00439303 -0.119165 0
0.00411154 -0.123032 0
0.00344805 -0.125743 0
0.00260084 -0.127247 0
0.00178011 -0.127879 0
0.00111539 -0.128038 0
0.000644891 -0.128008 0
0.000346427 -0.127936 0
0.000173947 -0.127876 0
8.20731e-05 -0.127838 0
3.6559e-05 -0.127818 0
1.54381e-05 -0.127808 0
6.20284e-06 -0.127803 0
2.37902e-06 -0.127801 0
8.73513e-07 -0.1278 0
3.07838e-07 -0.1278 0
1.04365e-07 -0.1278 0
3.41084e-08 -0.1278 0
1.07659e-08 -0.1278 0
3.28737e-09 -0.1278 0
9.7251e-10 -0.1278 0
2.79148e-10 -0.1278 0
7.78733e-11 -0.1278 0
2.11108e-11 -0.1278 0
5.58503e-12 -0.1278 0
1.43669e-12 -0.1278 0
3.50383e-13 -0.1278 0
6.27926e-14 -0.1278 0
7.08813e-15 -0.1278 0
5.14182e-16 -0.1278 0
2.02521e-17 -0.1278 0
8.78123e-19 -0.1278 0
3.18687e-20 -0.1278 0
3.98824e-22 -0.1278 0
-2.90834e-30 -0.1278 0
3.31942e-30 -0.1278 0
4.45934e-33 -0.1278 0
-3.31192e-30 -0.1278 0
2.87992e-30 -0.1278 0
-2.89326e-30 -0.1278 0
3.32384e-30 -0.1278 0
-1.44233e-32 -0.1278 0
-3.34607e-30 -0.1278 0
2.89479e-30 -0.1278 0
-2.89828e-30 -0.1278 0
3.31795e-30 -0.1278 0
8.32606e-33 -0.1278 0
-3.33758e-30 -0.1278 0
2.8595e-30 -0.1278 0
-2.8505e-30 -0.1278 0
-2.99118e-22 -0.1278 0
-2.08707e-20 -0.1278 0
-4.13454e-19 -0.1278 0
-2.83139e-18 -0.1278 0
-3.40294e-18 -0.1278 0
5.43993e-18 -0.1278 0
1.79347e-17 -0.1278 0
-6.34287e-18 -0.1278 0
-1.16445e-18 -0.1278 0
-8.49217e-18 -0.1278 0
-5.70487e-17 -0.1278 0
-5.14897e-17 -0.1278 0
-1.09142e-17 -0.1278 0
2.89224e-17 -0.1278 0
8.4992e-17 -0.1278 0
6.32226e-17 -0.1278 0
2.78992e-18 -0.1278 0
-5.65325e-19 -0.1278 0
-6.44442e-17 -0.1278 0
-1.4167e-16 -0.1278 0
-3.06732e-17 -0.1278 0
5.22504e-17 -0.1278 0
0.000179446 -0.000454077 0
0.000161574 -0.000711282 0
0.000188945 -0.00165264 0
-4.14338e-06 -0.0022268 0
-0.000173057 -0.00287874 0
0.000480201 -0.00463582 0
0.000578627 -0.00422923 0
0.000126827 -0.004648 0
0.000454534 -0.00595113 0
0.000905481 -0.00549599 0
0.000661317 -0.00428316 0
0.00028009 -0.00422339 0
0.000178762 -0.00524083 0
0.000850188 -0.00724006 0
0.000894146 -0.012824 0
0.000241861 -0.0182259 0
0.000614591 -0.0249405 0
0.0015301 -0.0330428 0
0.00253746 -0.0427237 0
0.00384228 -0.0523858 0
0.00465279 -0.0626552 0
0.00475505 -0.0726118 0
0.00493731 -0.0814297 0
0.00512348 -0.0900575 0
0.00489483 -0.0982783 0
0.00446234 -0.104933 0
0.0042461 -0.110078 0
0.00427992 -0.114638 0
0.00427987 -0.118969 0
0.00399624 -0.122676 0
0.00339488 -0.12532 0
0.00261269 -0.126865 0
0.00182938 -0.12759 0
0.00117328 -0.127847 0
0.000694082 -0.127894 0
0.000381203 -0.127873 0
0.000195521 -0.127844 0
9.41445e-05 -0.127823 0
4.2755e-05 -0.127811 0
1.83893e-05 -0.127805 0
7.51835e-06 -0.127802 0
2.93144e-06 -0.127801 0
1.09321e-06 -0.1278 0
3.90951e-07 -0.1278 0
1.34386e-07 -0.1278 0
4.44947e-08 -0.1278 0
1.42171e-08 -0.1278 0
4.39142e-09 -0.1278 0
1.31333e-09 -0.1278 0
3.80843e-10 -0.1278 0
1.07236e-10 -0.1278 0
2.93433e-11 -0.1278 0
7.82689e-12 -0.1278 0
2.03519e-12 -0.1278 0
5.15019e-13 -0.1278 0
1.08207e-13 -0.1278 0
1.22543e-14 -0.1278 0
8.40288e-16 -0.1278 0
1.98735e-17 -0.1278 0
4.6681e-20 -0.1278 0
-1.25665e-21 -0.1278 0
4.17081e-30 -0.1278 0
-4.18928e-30 -0.1278 0
4.75449e-30 -0.1278 0
3.66971e-32 -0.1278 0
-4.76988e-30 -0.1278 0
4.16491e-30 -0.1278 0
-4.13052e-30 -0.1278 0
4.75741e-30 -0.1278 0
-1.83388e-32 -0.1278 0
-4.75594e-30 -0.1278 0
4.17834e-30 -0.1278 0
-4.17027e-30 -0.1278 0
4.78157e-30 -0.1278 0
1.38342e-33 -0.1278 0
-4.76603e-30 -0.1278 0
4.14926e-30 -0.1278 0
-4.17006e-30 -0.1278 0
4.80131e-30 -0.1278 0
-2.3947e-21 -0.1278 0
-1.23033e-19 -0.1278 0
-8.83712e-19 -0.1278 0
3.84058e-19 -0.1278 0
9.13672e-18 -0.1278 0
1.5345e-17 -0.1278 0
-9.22554e-18 -0.1278 0
-1.48021e-17 -0.1278 0
-2.06839e-17 -0.1278 0
-5.26335e-17 -0.1278 0
-3.88981e-17 -0.1278 0
-1.376e-17 -0.1278 0
-4.20175e-18 -0.1278 0
3.84546e-17 -0.1278 0
2.93695e-17 -0.1278 0
2.48132e-18 -0.1278 0
1.50311e-17 -0.1278 0
-3.21931e-17 -0.1278 0
-2.48262e-17 -0.1278 0
4.78749e-17 -0.1278 0
-9.75728e-17 -0.1278 0
0.000439243 -0.00033883 0
0.000658037 0.000424785 0
0.000910858 -0.000902491 0
0.000674701 -0.001266 0
0.000414835 -0.00174736 0
0.00114457 -0.00425148 0
0.00119461 -0.00328173 0
0.000758207 -0.00400594 0
0.00112359 -0.00623314 0
0.00134654 -0.00563662 0
0.000726516 -0.00402902 0
0.000424589 -0.00411037 0
0.000385372 -0.00619243 0
0.000362175 -0.00785768 0
-2.54907e-05 -0.0118805 0
-0.000479645 -0.0171596 0
-0.000305399 -0.0252705 0
0.000714052 -0.0340967 0
0.00207605 -0.0442332 0
0.0033923 -0.0542434 0
0.00441358 -0.0641313 0
0.00491676 -0.0735968 0
0.00514687 -0.0820245 0
0.00523576 -0.0900342 0
0.00507023 -0.0977034 0
0.00472281 -0.10427 0
0.00444584 -0.10963 0
0.004335 -0.11435 0
0.00423541 -0.118677 0
0.0039382 -0.122321 0
0.00337303 -0.124948 0
0.0026307 -0.126541 0
0.00186883 -0.12735 0
0.00121544 -0.12769 0
0.000728412 -0.127802 0
0.000404886 -0.127823 0
0.000209994 -0.127819 0
0.000102173 -0.127811 0
4.68579e-05 -0.127805 0
2.03411e-05 -0.127802 0
8.38923e-06 -0.127801 0
3.29804e-06 -0.1278 0
1.23951e-06 -0.1278 0
4.4652e-07 -0.1278 0
1.54545e-07 -0.1278 0
5.15003e-08 -0.1278 0
1.65555e-08 -0.1278 0
5.14289e-09 -0.1278 0
1.54633e-09 -0.1278 0
4.50628e-10 -0.1278 0
1.27485e-10 -0.1278 0
3.50402e-11 -0.1278 0
9.38995e-12 -0.1278 0
2.45036e-12 -0.1278 0
6.24071e-13 -0.1278 0
1.40342e-13 -0.1278 0
1.61934e-14 -0.1278 0
1.11172e-15 -0.1278 0
2.07152e-17 -0.1278 0
-6.36002e-19 -0.1278 0
-2.7926e-20 -0.1278 0
-2.99118e-22 -0.1278 0
2.38801e-30 -0.1278 0
-2.68752e-30 -0.1278 0
-6.51442e-33 -0.1278 0
2.68115e-30 -0.1278 0
-2.40275e-30 -0.1278 0
2.41686e-30 -0.1278 0
-2.70536e-30 -0.1278 0
-1.16975e-33 -0.1278 0
2.6869e-30 -0.1278 0
-2.40331e-30 -0.1278 0
2.41112e-30 -0.1278 0
-2.71508e-30 -0.1278 0
9.07038e-33 -0.1278 0
2.68728e-30 -0.1278 0
-2.40852e-30 -0.1278 0
2.38448e-30 -0.1278 0
1.99412e-22 -0.1278 0
1.2532e-20 -0.1278 0
1.66375e-19 -0.1278 0
9.89811e-19 -0.1278 0
3.81732e-18 -0.1278 0
5.87478e-18 -0.1278 0
1.59557e-18 -0.1278 0
-1.47682e-17 -0.1278 0
-8.14726e-18 -0.1278 0
4.17104e-18 -0.1278 0
-2.46834e-17 -0.1278 0
-1.22881e-17 -0.1278 0
-1.18061e-17 -0.1278 0
-3.03361e-17 -0.1278 0
-2.29611e-17 -0.1278 0
-4.54234e-17 -0.1278 0
1.23122e-17 -0.1278 0
4.61293e-17 -0.1278 0
7.93173e-17 -0.1278 0
1.67339e-16 -0.1278 0
1.28211e-16 -0.1278 0
-2.39158e-16 -0.1278 0
0.000597732 -0.000926002 0
0.00109105 -0.000761942 0
0.00144478 -0.00346856 0
0.00121094 -0.00251279 0
0.00133021 -0.0023228 0
0.00170007 -0.00472547 0
0.00167116 -0.00310293 0
0.0017909 -0.00407605 0
0.00212601 -0.00673563 0
0.0019131 -0.00615024 0
0.00100124 -0.00522038 0
0.000529691 -0.00571697 0
0.000677524 -0.00707844 0
0.000156419 -0.00875545 0
-0.000612448 -0.0112164 0
-0.00110277 -0.0171279 0
-0.000848444 -0.024892 0
0.000495305 -0.0345038 0
0.00186081 -0.0454755 0
0.00305719 -0.0556572 0
0.00417802 -0.0654689 0
0.00481307 -0.0746309 0
0.00505168 -0.0825996 0
0.00519286 -0.0900529 0
0.00518165 -0.0972391 0
0.00494298 -0.103621 0
0.00464469 -0.109065 0
0.00444558 -0.113927 0
0.00427772 -0.118321 0
0.00395805 -0.121973 0
0.00339675 -0.124616 0
0.00266137 -0.126259 0
0.00189989 -0.12714 0
0.00124111 -0.127551 0
0.000746683 -0.127718 0
0.000416488 -0.127778 0
0.000216716 -0.127796 0
0.000105777 -0.1278 0
4.86632e-05 -0.127801 0
2.11911e-05 -0.1278 0
8.7672e-06 -0.1278 0
3.45737e-06 -0.1278 0
1.30339e-06 -0.1278 0
4.70949e-07 -0.1278 0
1.63479e-07 -0.1278 0
5.46325e-08 -0.1278 0
1.76105e-08 -0.1278 0
5.48499e-09 -0.1278 0
1.65326e-09 -0.1278 0
4.82994e-10 -0.1278 0
1.36899e-10 -0.1278 0
3.77027e-11 -0.1278 0
1.01094e-11 -0.1278 0
2.6613e-12 -0.1278 0
6.7416e-13 -0.1278 0
1.55362e-13 -0.1278 0
1.82835e-14 -0.1278 0
1.27089e-15 -0.1278 0
2.38081e-17 -0.1278 0
-7.28117e-19 -0.1278 0
-2.52811e-20 -0.1278 0
-1.85836e-22 -0.1278 0
1.46612e-30 -0.1278 0
-1.68294e-30 -0.1278 0
1.13289e-32 -0.1278 0
1.69651e-30 -0.1278 0
-1.51055e-30 -0.1278 0
1.53489e-30 -0.1278 0
-1.70044e-30 -0.1278 0
-3.03918e-32 -0.1278 0
1.70859e-30 -0.1278 0
-1.50952e-30 -0.1278 0
1.50456e-30 -0.1278 0
-1.72513e-30 -0.1278 0
1.54196e-32 -0.1278 0
1.71081e-30 -0.1278 0
-1.54397e-30 -0.1278 0
1.4854e-30 -0.1278 0
1.2389e-22 -0.1278 0
1.28737e-20 -0.1278 0
3.50833e-19 -0.1278 0
2.53284e-18 -0.1278 0
8.73065e-18 -0.1278 0
7.90046e-18 -0.1278 0
-7.09845e-18 -0.1278 0
-1.59275e-17 -0.1278 0
3.73669e-17 -0.1278 0
5.17303e-17 -0.1278 0
-2.199e-17 -0.1278 0
-2.10999e-17 -0.1278 0
-8.6684e-18 -0.1278 0
-5.79553e-18 -0.1278 0
-3.78642e-17 -0.1278 0
-3.51862e-17 -0.1278 0
8.26749e-17 -0.1278 0
1.38767e-16 -0.1278 0
1.11482e-16 -0.1278 0
-5.17101e-17 -0.1278 0
-7.82389e-17 -0.1278 0
-7.85926e-17 -0.1278 0
0.000667323 -0.00188322 0
0.00109879 -0.00219372 0
0.00109829 -0.00363576 0
0.00143746 -0.00257759 0
0.00210277 -0.00269411 0
0.00167531 -0.00390485 0
0.00176972 -0.00190673 0
0.0029007 -0.00307223 0
0.00314289 -0.00526869 0
0.00241572 -0.00444317 0
0.00185512 -0.00455655 0
0.00153866 -0.00665216 0
0.00120034 -0.00775859 0
0.000211648 -0.0085002 0
-0.00093754 -0.0106371 0
-0.00135889 -0.0164281 0
-0.000616038 -0.0248985 0
0.000774572 -0.0356702 0
0.00194428 -0.046428 0
0.00319392 -0.0564444 0
0.00426983 -0.0663507 0
0.00466976 -0.0753394 0
0.00477303 -0.0830375 0
0.00499263 -0.0901783 0
0.00514329 -0.0969789 0
0.00502216 -0.103092 0
0.00477485 -0.108507 0
0.00458728 -0.113469 0
0.00441056 -0.117949 0
0.00406747 -0.121641 0
0.00347406 -0.124313 0
0.00270689 -0.126003 0
0.00192121 -0.126948 0
0.00124796 -0.127423 0
0.000746907 -0.127641 0
0.000414703 -0.127735 0
0.000214949 -0.127774 0
0.000104581 -0.12779 0
4.79921e-05 -0.127796 0
2.0859e-05 -0.127798 0
8.61788e-06 -0.127799 0
3.3953e-06 -0.1278 0
1.27926e-06 -0.1278 0
4.62104e-07 -0.1278 0
1.60403e-07 -0.1278 0
5.36127e-08 -0.1278 0
1.72869e-08 -0.1278 0
5.38638e-09 -0.1278 0
1.62434e-09 -0.1278 0
4.74765e-10 -0.1278 0
1.34644e-10 -0.1278 0
3.71711e-11 -0.1278 0
9.97537e-12 -0.1278 0
2.61058e-12 -0.1278 0
6.68998e-13 -0.1278 0
1.52984e-13 -0.1278 0
1.8034e-14 -0.1278 0
1.25657e-15 -0.1278 0
2.45816e-17 -0.1278 0
-5.03623e-19 -0.1278 0
-1.15962e-20 -0.1278 0
3.32883e-30 -0.1278 0
-3.37646e-30 -0.1278 0
3.86422e-30 -0.1278 0
5.06949e-32 -0.1278 0
-3.84795e-30 -0.1278 0
3.34147e-30 -0.1278 0
-3.34528e-30 -0.1278 0
3.84219e-30 -0.1278 0
-2.18945e-32 -0.1278 0
-3.818e-30 -0.1278 0
3.36517e-30 -0.1278 0
-3.38764e-30 -0.1278 0
3.87745e-30 -0.1278 0
1.57891e-32 -0.1278 0
-3.85081e-30 -0.1278 0
3.38182e-30 -0.1278 0
-3.35173e-30 -0.1278 0
3.83894e-30 -0.1278 0
5.5691e-21 -0.1278 0
2.65965e-19 -0.1278 0
2.18921e-18 -0.1278 0
7.68159e-18 -0.1278 0
5.56464e-18 -0.1278 0
-1.43795e-17 -0.1278 0
-5.78417e-18 -0.1278 0
4.12283e-17 -0.1278 0
5.3088e-17 -0.1278 0
-1.03371e-17 -0.1278 0
-4.23787e-17 -0.1278 0
-3.94611e-17 -0.1278 0
-3.50263e-17 -0.1278 0
1.55338e-17 -0.1278 0
5.8813e-17 -0.1278 0
7.45254e-18 -0.1278 0
5.44124e-17 -0.1278 0
9.06199e-18 -0.1278 0
-1.85129e-16 -0.1278 0
1.04372e-17 -0.1278 0
-6.9691e-17 -0.1278 0
0.000471371 -0.000683721 0
0.00101798 -0.000744942 0
0.00155967 -0.0011903 0
0.00228786 -0.0018247 0
0.00241543 -0.00258094 0
0.00123722 -0.00218033 0
0.0017425 -0.000652918 0
0.00365551 -0.00190575 0
0.00365372 -0.00264583 0
0.0023915 -0.00149915 0
0.00225059 -0.00253766 0
0.00257997 -0.00557422 0
0.00180976 -0.00706148 0
4.52179e-05 -0.00766889 0
-0.00157093 -0.0105802 0
-0.00196378 -0.0172271 0
-0.00104497 -0.0267368 0
0.00041789 -0.037243 0
0.00208943 -0.0472392 0
0.0037492 -0.057102 0
0.00463879 -0.0668228 0
0.00469216 -0.0755404 0
0.00465849 -0.0832271 0
0.00485389 -0.0903504 0
0.00498596 -0.0969002 0
0.00490244 -0.102745 0
0.00477641 -0.10808 0
0.00472329 -0.113092 0
0.00461374 -0.117627 0
0.00425375 -0.12134 0
0.00359583 -0.124029 0
0.00276107 -0.125759 0
0.00192932 -0.126763 0
0.00123457 -0.127299 0
0.000728814 -0.127566 0
0.000399742 -0.127694 0
0.000204989 -0.127753 0
9.88163e-05 -0.12778 0
4.49879e-05 -0.127792 0
1.94211e-05 -0.127797 0
7.97766e-06 -0.127799 0
3.12773e-06 -0.1278 0
1.17357e-06 -0.1278 0
4.22444e-07 -0.1278 0
1.46201e-07 -0.1278 0
4.87428e-08 -0.1278 0
1.5683e-08 -0.1278 0
4.87775e-09 -0.1278 0
1.46869e-09 -0.1278 0
4.28755e-10 -0.1278 0
1.21455e-10 -0.1278 0
3.34024e-11 -0.1278 0
8.97849e-12 -0.1278 0
2.34704e-12 -0.1278 0
5.93487e-13 -0.1278 0
1.34918e-13 -0.1278 0
1.5584e-14 -0.1278 0
1.07835e-15 -0.1278 0
2.25782e-17 -0.1278 0
-2.38313e-19 -0.1278 0
-7.11094e-21 -0.1278 0
3.06283e-30 -0.1278 0
-3.15939e-30 -0.1278 0
3.57737e-30 -0.1278 0
7.35228e-32 -0.1278 0
-3.55398e-30 -0.1278 0
3.11805e-30 -0.1278 0
-3.15354e-30 -0.1278 0
3.60539e-30 -0.1278 0
1.17262e-32 -0.1278 0
-3.53715e-30 -0.1278 0
3.1113e-30 -0.1278 0