<?xml version='1.0' encoding='UTF-8'?>
<VTKFile byte_order='LittleEndian' version='0.1' type = 'UnstructuredGrid'>
<UnstructuredGrid>
<FieldData>
<DataArray type='Float64' Name='Time' NumberOfComponents='1' NumberOfTuples='1' format='ascii'>
1.281
</DataArray>
</FieldData>
<Piece NumberOfCells='808' NumberOfPoints='808'>
<Points>
<DataArray NumberOfComponents='3' type='Float64' Name='position' format='ascii'>
0 0 0
0 0.025 0
0 0.05 0
0 0.075 0
0 0.1 0
0 0.125 0
0 0.15 0
0 0.175 0
0.025 0 0
0.05 0 0
0.075 0 0
0.1 0 0
0.125 0 0
0.15 0 0
0.175 0 0
0.2 0 0
0.225 0 0
0.25 0 0
0.275 0 0
0.3 0 0
0.325 0 0
0.35 0 0
0.378553 -0.0206225 0
0.403526 -0.0318268 0
0.428633 -0.0412056 0
0.45361 -0.0493448 0
0.478545 -0.056706 0
0.503454 -0.0635726 0
0.528266 -0.0702978 0
0.553209 -0.0766678 0
0.578046 -0.0826918 0
0.602899 -0.0883466 0
0.627883 -0.0936425 0
0.652745 -0.098668 0
0.67758 -0.10341 0
0.702452 -0.108039 0
0.727256 -0.112597 0
0.75206 -0.116938 0
0.776901 -0.121122 0
0.801695 -0.125276 0
0.82647 -0.129339 0
0.851336 -0.133248 0
0.87631 -0.137053 0
0.901341 -0.140749 0
0.926402 -0.144218 0
0.951489 -0.147374 0
0.976582 -0.150226 0
1.00165 -0.152794 0
1.02666 -0.155051 0
1.05163 -0.156961 0
1.07656 -0.158535 0
1.10146 -0.159831 0
1.12634 -0.160908 0
1.15121 -0.161798 0
1.17608 -0.162507 0
1.20094 -0.163037 0
1.2258 -0.163399 0
1.25067 -0.163622 0
1.27553 -0.163739 0
1.30041 -0.163787 0
1.3253 -0.163796 0
1.35021 -0.163785 0
1.37514 -0.163768 0
1.40009 -0.163751 0
1.42506 -0.163737 0
1.45003 -0.163728 0
1.47502 -0.163721 0
1.50001 -0.163717 0
1.52501 -0.163715 0
1.55 -0.163713 0
1.575 -0.163713 0
1.6 -0.163712 0
1.625 -0.163712 0
1.65 -0.163712 0
1.675 -0.163712 0
1.7 -0.163712 0
1.725 -0.163712 0
1.75 -0.163712 0
1.775 -0.163712 0
1.8 -0.163712 0
1.825 -0.163712 0
1.85 -0.163712 0
1.875 -0.163712 0
1.9 -0.163712 0
1.925 -0.163712 0
1.95 -0.163712 0
1.975 -0.163712 0
2 -0.163712 0
2.025 -0.163712 0
2.05 -0.163712 0
2.075 -0.163712 0
2.1 -0.163712 0
2.125 -0.163712 0
2.15 -0.163712 0
2.175 -0.163712 0
2.2 -0.163712 0
2.225 -0.163712 0
2.25 -0.163712 0
2.275 -0.163712 0
2.3 -0.163712 0
2.325 -0.163712 0
2.35 -0.163712 0
2.375 -0.163712 0
2.4 -0.163712 0
2.425 -0.163712 0
2.45 -0.163712 0
2.475 -0.163712 0
2.5 -0.163712 0
0.0249521 0.024676 0
0.0499352 0.0244973 0
0.0749061 0.024373 0
0.0998791 0.0241778 0
0.124815 0.0240246 0
0.149808 0.0237014 0
0.174777 0.0234722 0
0.199661 0.0230036 0
0.224716 0.0224182 0
0.249776 0.0218742 0
0.274818 0.0208572 0
0.30005 0.0193842 0
0.32564 0.0168397 0
0.35268 0.0113351 0
0.37887 0.00106495 0
0.403626 -0.00825202 0
0.428622 -0.0169301 0
0.453584 -0.0248548 0
0.478523 -0.0320969 0
0.503425 -0.0389516 0
0.528296 -0.0456282 0
0.553224 -0.0518996 0
0.5781 -0.0577981 0
0.602952 -0.0633873 0
0.627833 -0.0686706 0
0.652679 -0.0737011 0
0.677539 -0.078479 0
0.70242 -0.0830967 0
0.727257 -0.087609 0
0.752072 -0.0919614 0
0.776894 -0.0961832 0
0.801695 -0.100336 0
0.826498 -0.104393 0
0.851372 -0.108321 0
0.876336 -0.112139 0
0.901357 -0.115824 0
0.926412 -0.119276 0
0.951491 -0.122421 0
0.976575 -0.125256 0
1.00163 -0.127795 0
1.02665 -0.130022 0
1.05162 -0.131915 0
1.07655 -0.133485 0
1.10145 -0.134781 0
1.12634 -0.135857 0
1.15121 -0.136743 0
1.17608 -0.137446 0
1.20095 -0.137972 0
1.22581 -0.138335 0
1.25067 -0.138561 0
1.27554 -0.138685 0
1.30041 -0.138742 0
1.32531 -0.13876 0
1.35022 -0.138758 0
1.37515 -0.138748 0
1.4001 -0.138738 0
1.42506 -0.138729 0
1.45004 -0.138722 0
1.47502 -0.138718 0
1.50001 -0.138715 0
1.52501 -0.138714 0
1.55 -0.138713 0
1.575 -0.138712 0
1.6 -0.138712 0
1.625 -0.138712 0
1.65 -0.138712 0
1.675 -0.138712 0
1.7 -0.138712 0
1.725 -0.138712 0
1.75 -0.138712 0
1.775 -0.138712 0
1.8 -0.138712 0
1.825 -0.138712 0
1.85 -0.138712 0
1.875 -0.138712 0
1.9 -0.138712 0
1.925 -0.138712 0
1.95 -0.138712 0
1.975 -0.138712 0
2 -0.138712 0
2.025 -0.138712 0
2.05 -0.138712 0
2.075 -0.138712 0
2.1 -0.138712 0
2.125 -0.138712 0
2.15 -0.138712 0
2.175 -0.138712 0
2.2 -0.138712 0
2.225 -0.138712 0
2.25 -0.138712 0
2.275 -0.138712 0
2.3 -0.138712 0
2.325 -0.138712 0
2.35 -0.138712 0
2.375 -0.138712 0
2.4 -0.138712 0
2.425 -0.138712 0
2.45 -0.138712 0
2.475 -0.138712 0
2.5 -0.138712 0
0.0248975 0.049335 0
0.0498464 0.0488849 0
0.0748058 0.0485521 0
0.0997923 0.0481128 0
0.124727 0.0478787 0
0.149696 0.0473527 0
0.174705 0.0469173 0
0.199642 0.0462231 0
0.224704 0.0452521 0
0.24983 0.0442206 0
0.275053 0.0424876 0
0.30056 0.0402066 0
0.326406 0.036782 0
0.352728 0.0311083 0
0.378648 0.0230822 0
0.403732 0.0150329 0
0.428705 0.00714628 0
0.453635 -0.000384546 0
0.478558 -0.00748481 0
0.503447 -0.0142711 0
0.5283 -0.0207962 0
0.553187 -0.0269943 0
0.578076 -0.03281 0
0.602953 -0.0383499 0
0.627816 -0.0436422 0
0.652652 -0.0486856 0
0.677508 -0.0534888 0
0.702386 -0.0581032 0
0.727241 -0.06259 0
0.752076 -0.0669572 0
0.776901 -0.0712172 0
0.801709 -0.0753797 0
0.826523 -0.0794329 0
0.851401 -0.0833709 0
0.876359 -0.0871983 0
0.901374 -0.0908754 0
0.926423 -0.0943139 0
0.951494 -0.0974467 0
0.976572 -0.100265 0
1.00163 -0.102781 0
1.02665 -0.104985 0
1.05162 -0.106867 0
1.07655 -0.108437 0
1.10145 -0.109739 0
1.12634 -0.110816 0
1.15121 -0.111698 0
1.17608 -0.112396 0
1.20095 -0.112916 0
1.22581 -0.113277 0
1.25067 -0.113505 0
1.27554 -0.113635 0
1.30042 -0.1137 0
1.32531 -0.113727 0
1.35022 -0.113733 0
1.37515 -0.113731 0
1.4001 -0.113726 0
1.42506 -0.113722 0
1.45004 -0.113718 0
1.47502 -0.113716 0
1.50001 -0.113714 0
1.52501 -0.113713 0
1.55 -0.113713 0
1.575 -0.113712 0
1.6 -0.113712 0
1.625 -0.113712 0
1.65 -0.113712 0
1.675 -0.113712 0
1.7 -0.113712 0
1.725 -0.113712 0
1.75 -0.113712 0
1.775 -0.113712 0
1.8 -0.113712 0
1.825 -0.113712 0
1.85 -0.113712 0
1.875 -0.113712 0
1.9 -0.113712 0
1.925 -0.113712 0
1.95 -0.113712 0
1.975 -0.113712 0
2 -0.113712 0
2.025 -0.113712 0
2.05 -0.113712 0
2.075 -0.113712 0
2.1 -0.113712 0
2.125 -0.113712 0
2.15 -0.113712 0
2.175 -0.113712 0
2.2 -0.113712 0
2.225 -0.113712 0
2.25 -0.113712 0
2.275 -0.113712 0
2.3 -0.113712 0
2.325 -0.113712 0
2.35 -0.113712 0
2.375 -0.113712 0
2.4 -0.113712 0
2.425 -0.113712 0
2.45 -0.113712 0
2.475 -0.113712 0
2.5 -0.113712 0
0.024902 0.0741705 0
0.0498345 0.0735294 0
0.0747788 0.0730843 0
0.0997523 0.0724689 0
0.124725 0.0719855 0
0.149697 0.0712496 0
0.174714 0.0705786 0
0.199743 0.0696931 0
0.22485 0.0684238 0
0.250036 0.0669699 0
0.275374 0.0647287 0
0.300937 0.061862 0
0.326698 0.0580524 0
0.35263 0.0525128 0
0.37834 0.045755 0
0.403614 0.0385565 0
0.42865 0.0311649 0
0.453604 0.0239094 0
0.478563 0.0170954 0
0.503462 0.0105289 0
0.528303 0.00408021 0
0.553154 -0.00205909 0
0.57803 -0.00784766 0
0.602928 -0.0133721 0
0.627806 -0.0186402 0
0.652646 -0.0236592 0
0.677489 -0.0284679 0
0.702349 -0.0330962 0
0.727211 -0.0375851 0
0.752072 -0.041965 0
0.776917 -0.0462442 0
0.801732 -0.0504132 0
0.826547 -0.0544713 0
0.85142 -0.0584236 0
0.876372 -0.0622606 0
0.901383 -0.0659316 0
0.926428 -0.0693558 0
0.951496 -0.0724743 0
0.976572 -0.075276 0
1.00163 -0.07777 0
1.02665 -0.079955 0
1.05162 -0.0818261 0
1.07655 -0.0833976 0
1.10145 -0.0847048 0
1.12633 -0.0857856 0
1.15121 -0.0866648 0
1.17608 -0.0873549 0
1.20095 -0.0878676 0
1.22582 -0.0882232 0
1.25068 -0.0884514 0
1.27555 -0.0885862 0
1.30042 -0.0886589 0
1.32531 -0.0886942 0
1.35022 -0.0887093 0
1.37515 -0.0887144 0
1.4001 -0.0887152 0
1.42506 -0.0887147 0
1.45004 -0.0887138 0
1.47502 -0.0887131 0
1.50001 -0.0887126 0
1.52501 -0.0887124 0
1.55 -0.0887122 0
1.575 -0.0887121 0
1.6 -0.088712 0
1.625 -0.088712 0
1.65 -0.088712 0
1.675 -0.088712 0
1.7 -0.088712 0
1.725 -0.088712 0
1.75 -0.088712 0
1.775 -0.088712 0
1.8 -0.088712 0
1.825 -0.088712 0
1.85 -0.088712 0
1.875 -0.088712 0
1.9 -0.088712 0
1.925 -0.088712 0
1.95 -0.088712 0
1.975 -0.088712 0
2 -0.088712 0
2.025 -0.088712 0
2.05 -0.088712 0
2.075 -0.088712 0
2.1 -0.088712 0
2.125 -0.088712 0
2.15 -0.088712 0
2.175 -0.088712 0
2.2 -0.088712 0
2.225 -0.088712 0
2.25 -0.088712 0
2.275 -0.088712 0
2.3 -0.088712 0
2.325 -0.088712 0
2.35 -0.088712 0
2.375 -0.088712 0
2.4 -0.088712 0
2.425 -0.088712 0
2.45 -0.088712 0
2.475 -0.088712 0
2.5 -0.088712 0
0.0249275 0.0990691 0
0.0498553 0.0983419 0
0.0747941 0.0977974 0
0.099779 0.0970877 0
0.124788 0.0965242 0
0.149806 0.095641 0
0.174809 0.0947076 0
0.199866 0.0935681 0
0.225016 0.092035 0
0.250284 0.0902189 0
0.275648 0.0876675 0
0.301165 0.0845093 0
0.326774 0.0804503 0
0.35249 0.0752363 0
0.378069 0.0689926 0
0.403373 0.0624041 0
0.428473 0.0553359 0
0.453468 0.048492 0
0.47849 0.0418141 0
0.503432 0.0352255 0
0.528301 0.0288679 0
0.55315 0.0228318 0
0.578027 0.0170886 0
0.602934 0.0115769 0
0.6278 0.00633872 0
0.652622 0.00135561 0
0.677454 -0.00344977 0
0.70231 -0.00810954 0
0.727185 -0.0126169 0
0.752074 -0.0169978 0
0.776941 -0.0212679 0
0.801761 -0.0254327 0
0.826567 -0.0295048 0
0.851426 -0.0334826 0
0.876368 -0.037335 0
0.901377 -0.041002 0
0.926426 -0.0444113 0
0.951497 -0.0475137 0
0.976576 -0.0502983 0
1.00164 -0.052772 0
1.02666 -0.0549375 0
1.05163 -0.056797 0
1.07655 -0.0583674 0
1.10145 -0.0596796 0
1.12633 -0.060764 0
1.15121 -0.061641 0
1.17608 -0.0623234 0
1.20095 -0.0628267 0
1.22582 -0.0631754 0
1.25068 -0.0634015 0
1.27555 -0.0635392 0
1.30043 -0.0636184 0
1.32532 -0.063662 0
1.35023 -0.0636853 0
1.37515 -0.0636975 0
1.4001 -0.0637041 0
1.42506 -0.0637076 0
1.45004 -0.0637096 0
1.47502 -0.0637107 0
1.50001 -0.0637113 0
1.52501 -0.0637116 0
1.55 -0.0637118 0
1.575 -0.0637119 0
1.6 -0.063712 0
1.625 -0.063712 0
1.65 -0.063712 0
1.675 -0.063712 0
1.7 -0.063712 0
1.725 -0.063712 0
1.75 -0.063712 0
1.775 -0.063712 0
1.8 -0.063712 0
1.825 -0.063712 0
1.85 -0.063712 0
1.875 -0.063712 0
1.9 -0.063712 0
1.925 -0.063712 0
1.95 -0.063712 0
1.975 -0.063712 0
2 -0.063712 0
2.025 -0.063712 0
2.05 -0.063712 0
2.075 -0.063712 0
2.1 -0.063712 0
2.125 -0.063712 0
2.15 -0.063712 0
2.175 -0.063712 0
2.2 -0.063712 0
2.225 -0.063712 0
2.25 -0.063712 0
2.275 -0.063712 0
2.3 -0.063712 0
2.325 -0.063712 0
2.35 -0.063712 0
2.375 -0.063712 0
2.4 -0.063712 0
2.425 -0.063712 0
2.45 -0.063712 0
2.475 -0.063712 0
2.5 -0.063712 0
0.0249224 0.123994 0
0.0498528 0.123253 0
0.0748105 0.12259 0
0.0998049 0.121905 0
0.124856 0.121233 0
0.149869 0.120239 0
0.174929 0.119176 0
0.20007 0.117779 0
0.225175 0.116007 0
0.250471 0.11395 0
0.275866 0.111194 0
0.301325 0.107864 0
0.326857 0.103664 0
0.35238 0.0985804 0
0.377872 0.0927434 0
0.403212 0.0864375 0
0.428332 0.0797434 0
0.453373 0.0731139 0
0.478435 0.0664321 0
0.503418 0.0599683 0
0.528294 0.0537053 0
0.553106 0.0477233 0
0.578004 0.0420382 0
0.602955 0.0365402 0
0.627812 0.0313218 0
0.652595 0.0263639 0
0.677402 0.0215373 0
0.702266 0.0168393 0
0.727173 0.0123181 0
0.752091 0.00795789 0
0.776971 0.00372332 0
0.801788 -0.000429144 0
0.82658 -0.00452384 0
0.851419 -0.00853812 0
0.876347 -0.0124149 0
0.901356 -0.0160843 0
0.926414 -0.0194816 0
0.951496 -0.0225679 0
0.976582 -0.0253356 0
1.00165 -0.0277899 0
1.02667 -0.0299354 0
1.05164 -0.0317805 0
1.07656 -0.0333462 0
1.10145 -0.0346612 0
1.12633 -0.0357493 0
1.15121 -0.036625 0
1.17608 -0.0373002 0
1.20096 -0.0377935 0
1.22582 -0.0381337 0
1.25069 -0.0383558 0
1.27555 -0.0384947 0
1.30043 -0.0385791 0
1.32532 -0.0386302 0
1.35023 -0.0386613 0
1.37515 -0.0386807 0
1.4001 -0.0386928 0
1.42506 -0.0387005 0
1.45004 -0.0387053 0
1.47502 -0.0387082 0
1.50001 -0.0387099 0
1.52501 -0.0387109 0
1.55 -0.0387114 0
1.575 -0.0387117 0
1.6 -0.0387119 0
1.625 -0.0387119 0
1.65 -0.038712 0
1.675 -0.038712 0
1.7 -0.038712 0
1.725 -0.038712 0
1.75 -0.038712 0
1.775 -0.038712 0
1.8 -0.038712 0
1.825 -0.038712 0
1.85 -0.038712 0
1.875 -0.038712 0
1.9 -0.038712 0
1.925 -0.038712 0
1.95 -0.038712 0
1.975 -0.038712 0
2 -0.038712 0
2.025 -0.038712 0
2.05 -0.038712 0
2.075 -0.038712 0
2.1 -0.038712 0
2.125 -0.038712 0
2.15 -0.038712 0
2.175 -0.038712 0
2.2 -0.038712 0
2.225 -0.038712 0
2.25 -0.038712 0
2.275 -0.038712 0
2.3 -0.038712 0
2.325 -0.038712 0
2.35 -0.038712 0
2.375 -0.038712 0
2.4 -0.038712 0
2.425 -0.038712 0
2.45 -0.038712 0
2.475 -0.038712 0
2.5 -0.038712 0
0.024936 0.148906 0
0.0499155 0.148088 0
0.0748999 0.147303 0
0.0999178 0.146517 0
0.124925 0.14561 0
0.149833 0.144665 0
0.175003 0.143512 0
0.200233 0.141997 0
0.225349 0.140096 0
0.250586 0.137847 0
0.275922 0.135047 0
0.301389 0.131569 0
0.326903 0.127331 0
0.35226 0.122322 0
0.377687 0.116731 0
0.403091 0.110554 0
0.428212 0.104158 0
0.453245 0.0976256 0
0.478356 0.091105 0
0.503442 0.0847964 0
0.528292 0.0786267 0
0.553022 0.0726851 0
0.577937 0.0669758 0
0.602961 0.0615032 0
0.627848 0.0563128 0
0.652592 0.0513306 0
0.677349 0.0464645 0
0.702216 0.0417375 0
0.727168 0.0372138 0
0.752121 0.0328981 0
0.777007 0.0287179 0
0.801813 0.024581 0
0.826584 0.02046 0
0.851398 0.0164038 0
0.876312 0.0124943 0
0.901325 0.00881356 0
0.926397 0.00542386 0
0.951493 0.00235311 0
0.976588 -0.000397475 0
1.00166 -0.00283219 0
1.02669 -0.00495515 0
1.05166 -0.00678054 0
1.07657 -0.00833583 0
1.10145 -0.00964992 0
1.12633 -0.0107407 0
1.1512 -0.011616 0
1.17608 -0.0122849 0
1.20096 -0.0127681 0
1.22583 -0.0130986 0
1.25069 -0.0133149 0
1.27556 -0.0134532 0
1.30043 -0.0135415 0
1.32532 -0.013599 0
1.35022 -0.0136375 0
1.37515 -0.0136636 0
1.4001 -0.0136814 0
1.42506 -0.0136932 0
1.45004 -0.0137009 0
1.47502 -0.0137056 0
1.50001 -0.0137085 0
1.52501 -0.0137101 0
1.55 -0.013711 0
1.575 -0.0137115 0
1.6 -0.0137118 0
1.625 -0.0137119 0
1.65 -0.013712 0
1.675 -0.013712 0
1.7 -0.013712 0
1.725 -0.013712 0
1.75 -0.013712 0
1.775 -0.013712 0
1.8 -0.013712 0
1.825 -0.013712 0
1.85 -0.013712 0
1.875 -0.013712 0
1.9 -0.013712 0
1.925 -0.013712 0
1.95 -0.013712 0
1.975 -0.013712 0
2 -0.013712 0
2.025 -0.013712 0
2.05 -0.013712 0
2.075 -0.013712 0
2.1 -0.013712 0
2.125 -0.013712 0
2.15 -0.013712 0
2.175 -0.013712 0
2.2 -0.013712 0
2.225 -0.013712 0
2.25 -0.013712 0
2.275 -0.013712 0
2.3 -0.013712 0
2.325 -0.013712 0
2.35 -0.013712 0
2.375 -0.013712 0
2.4 -0.013712 0
2.425 -0.013712 0
2.45 -0.013712 0
2.475 -0.013712 0
2.5 -0.013712 0
0.0249458 0.173885 0
0.0499465 0.173087 0
0.0748914 0.17237 0
0.0999115 0.17162 0
0.124904 0.170754 0
0.149939 0.16985 0
0.175125 0.168437 0
0.200024 0.167016 0
0.225427 0.165073 0
0.25083 0.162522 0
0.275893 0.159663 0
0.301486 0.155989 0
0.327036 0.151685 0
0.352165 0.14679 0
0.377594 0.141104 0
0.403141 0.134955 0
0.428192 0.12871 0
0.453113 0.122251 0
0.478328 0.115703 0
0.503446 0.109438 0
0.52819 0.103531 0
0.55292 0.0976557 0
0.577893 0.0918126 0
0.602975 0.0863224 0
0.627909 0.081198 0
0.652612 0.0762396 0
0.677292 0.0713497 0
0.70216 0.0665786 0
0.727168 0.0620501 0
0.752156 0.0577953 0
0.777044 0.0536804 0
0.801835 0.049563 0
0.826579 0.0454213 0
0.851365 0.0413253 0
0.876269 0.037376 0
0.901292 0.033675 0
0.926381 0.0302896 0
0.95149 0.0272354 0
0.976596 0.0245038 0
1.00168 0.022092 0
1.02671 0.0199983 0
1.05168 0.0182023 0
1.07658 0.0166667 0
1.10146 0.0153594 0
1.12632 0.014268 0
1.1512 0.0133929 0
1.17608 0.0127293 0
1.20096 0.0122559 0
1.22583 0.0119357 0
1.25069 0.0117263 0
1.27556 0.0115898 0
1.30043 0.0114984 0
1.32531 0.0114347 0
1.35022 0.0113888 0
1.37515 0.0113555 0
1.40009 0.0113317 0
1.42506 0.0113153 0
1.45003 0.0113044 0
1.47502 0.0112975 0
1.50001 0.0112933 0
1.52501 0.0112908 0
1.55 0.0112895 0
1.575 0.0112887 0
1.6 0.0112884 0
1.625 0.0112882 0
1.65 0.0112881 0
1.675 0.011288 0
1.7 0.011288 0
1.725 0.011288 0
1.75 0.011288 0
1.775 0.011288 0
1.8 0.011288 0
1.825 0.011288 0
1.85 0.011288 0
1.875 0.011288 0
1.9 0.011288 0
1.925 0.011288 0
1.95 0.011288 0
1.975 0.011288 0
2 0.011288 0
2.025 0.011288 0
2.05 0.011288 0
2.075 0.011288 0
2.1 0.011288 0
2.125 0.011288 0
2.15 0.011288 0
2.175 0.011288 0
2.2 0.011288 0
2.225 0.011288 0
2.25 0.011288 0
2.275 0.011288 0
2.3 0.011288 0
2.325 0.011288 0
2.35 0.011288 0
2.375 0.011288 0
2.4 0.011288 0
2.425 0.011288 0
2.45 0.011288 0
2.475 0.011288 0
2.5 0.011288 0
</DataArray>
</Points>
<PointData>
<DataArray NumberOfComponents='1' type='Int32' Name='Particle Type' format='ascii'>
0
0
0
0
0
0
0
0
0
0
0
0
0
0
0
0
0
0
0
0
0
0
1
1
1
1
1
1
1
1
1
1
1
1
1
1
1
1
1
1
1
1
1
1
1
1
1
1
1
1
1
1
1
1
1
1
1
1
1
1
1
1
1
1
1
1
1
1
1
1
1
1
1
1
1
1
1
1
1
1
1
1
1
1
1
1
1
1
1
1
1
1
1
1
1
1
1
1
1
1
1
1
1
1
1
1
1
1
1
1
1
1
1
1
1
1
1
1
1
1
1
1
1
1
1
1
1
1
1
1
1
1
1
1
1
1
1
1
1
1
1
1
1
1
1
1
1
1
1
1
1
1
1
1
1
1
1
1
1
1
1
1
1
1
1
1
1
1
1
1
1
1
1
1
1
1
1
1
1
1
1
1
1
1
1
1
1
1
1
1
1
1
1
1
1
1
1
1
1
1
1
1
1
1
1
1
1
1
1
1
1
1
1
1
1
1
1
1
1
1
1
1
1
1
1
1
1
1
1
1
1
1
1
1
1
1
1
1
1
1
1
1
1
1
1
1
1
1
1
1
1
1
1
1
1
1
1
1
1
1
1
1
1
1
1
1
1
1
1
1
1
1
1
1
1
1
1
1
1
1
1
1
1
1
1
1
1
1
1
1
1
1
1
1
1
1
1
1
1
1
1
1
1
1
1
1
1
1
1
1
1
1
1
1
1
1
1
1
1
1
1
1
1
1
1
1
1
1
1
1
1
1
1
1
1
1
1
1
1
1
1
1
1
1
1
1
1
1
1
1
1
1
1
1
1
1
1
1
1
1
1
1
1
1
1
1
1
1
1
1
1
1
1
1
1
1
1
1
1
1
1
1
1
1
1
1
1
1
1
1
1
1
1
1
1
1
1
1
1
1
1
1
1
1
1
1
1
1
1
1
1
1
1
1
1
1
1
1
1
1
1
1
1
1
1
1
1
1
1
1
1
1
1
1
1
1
1
1
1
1
1
1
1
1
1
1
1
1
1
1
1
1
1
1
1
1
1
1
1
1
1
1
1
1
1
1
1
1
1
1
1
1
1
1
1
1
1
1
1
1
1
1
1
1
1
1
1
1
1
1
1
1
1
1
1
1
1
1
1
1
1
1
1
1
1
1
1
1
1
1
1
1
1
1
1
1
1
1
1
1
1
1
1
1
1
1
1
1
1
1
1
1
1
1
1
1
1
1
1
1
1
1
1
1
1
1
1
1
1
1
1
1
1
1
1
1
1
1
1
1
1
1
1
1
1
1
1
1
1
1
1
1
1
1
1
1
1
1
1
1
1
1
1
1
1
1
1
1
1
1
1
1
1
1
1
1
1
1
1
1
1
1
1
1
1
1
1
1
1
1
1
1
1
1
1
1
1
1
1
1
1
1
1
1
1
1
1
1
1
1
1
1
1
1
1
1
1
1
1
1
1
1
1
1
1
1
1
1
1
1
1
1
1
1
1
1
1
1
1
1
1
1
1
1
1
1
1
1
1
1
1
1
1
1
1
1
1
1
1
1
1
1
1
1
1
1
1
1
1
1
1
1
1
1
1
1
1
1
1
1
1
1
1
1
1
1
1
1
1
1
1
1
1
1
1
1
1
1
1
1
1
1
1
1
1
1
1
1
1
1
1
1
1
1
1
1
1
1
1
1
1
1
1
1
1
1
1
1
1
1
1
1
1
1
1
1
1
1
1
1
1
1
1
1
1
1
1
1
1
1
1
1
1
1
1
1
1
1
1
1
1
1
1
1
1
1
1
1
1
1
1
1
1
1
1
1
1
1
1
1
1
1
1
1
1
1
1
1
</DataArray>
<DataArray NumberOfComponents='3' type='Float64' Name='Velocity' format='ascii'>
0 0 0
0 0 0
0 0 0
0 0 0
0 0 0
0 0 0
0 0 0
0 0 0
0 0 0
0 0 0
0 0 0
0 0 0
0 0 0
0 0 0
0 0 0
0 0 0
0 0 0
0 0 0
0 0 0
0 0 0
0 0 0
0 0 0
0.00307817 -0.0152617 0
0.00341021 -0.0240227 0
0.000267361 -0.0326655 0
0.00244959 -0.0428889 0
0.00159513 -0.0525532 0
0.00465437 -0.0533533 0
0.00298688 -0.0562688 0
0.00157007 -0.06479 0
0.00428308 -0.0740135 0
-0.000152035 -0.0859359 0
0.000313202 -0.0956489 0
0.00431875 -0.104593 0
0.0039332 -0.110938 0
0.00505884 -0.112552 0
0.00664486 -0.117465 0
0.0056388 -0.124206 0
0.00595194 -0.126641 0
0.00741694 -0.127779 0
0.00593474 -0.131513 0
0.00210007 -0.135297 0
-0.000872092 -0.138054 0
-0.00239748 -0.143093 0
-0.00343532 -0.151752 0
-0.00395418 -0.161578 0
-0.003398 -0.170781 0
-0.00189107 -0.180196 0
-8.53676e-05 -0.190815 0
0.00152907 -0.201833 0
0.0028044 -0.21158 0
0.00373848 -0.219289 0
0.00434859 -0.225475 0
0.00468772 -0.231094 0
0.00485538 -0.236674 0
0.00493909 -0.242109 0
0.00495647 -0.246957 0
0.00485998 -0.250829 0
0.00459034 -0.253576 0
0.00412826 -0.255291 0
0.00351172 -0.256206 0
0.00281883 -0.256581 0
0.00213597 -0.256643 0
0.00153092 -0.256556 0
0.00104068 -0.256421 0
0.000672936 -0.256292 0
0.000415138 -0.256188 0
0.000245006 -0.256115 0
0.000138687 -0.256066 0
7.54706e-05 -0.256037 0
3.95656e-05 -0.256019 0
2.00209e-05 -0.25601 0
9.79553e-06 -0.256005 0
4.64122e-06 -0.256002 0
2.13265e-06 -0.256001 0
9.51609e-07 -0.256 0
4.12834e-07 -0.256 0
1.74322e-07 -0.256 0
7.17194e-08 -0.256 0
2.87766e-08 -0.256 0
1.12706e-08 -0.256 0
4.31241e-09 -0.256 0
1.61317e-09 -0.256 0
5.90398e-10 -0.256 0
2.11562e-10 -0.256 0
7.42723e-11 -0.256 0
2.55657e-11 -0.256 0
8.63356e-12 -0.256 0
2.91683e-12 -0.256 0
9.57057e-13 -0.256 0
2.61003e-13 -0.256 0
3.5674e-14 -0.256 0
3.39692e-15 -0.256 0
-1.54893e-16 -0.256 0
-3.03032e-16 -0.256 0
4.14033e-16 -0.256 0
7.47075e-16 -0.256 0
-1.66436e-16 -0.256 0
-5.83443e-16 -0.256 0
-2.19769e-17 -0.256 0
5.29932e-16 -0.256 0
1.72363e-15 -0.256 0
-1.9278e-17 -0.256 0
-1.48319e-15 -0.256 0
1.41185e-18 -0.256 0
-3.52067e-16 -0.256 0
-7.94163e-16 -0.256 0
-7.46273e-17 -0.256 0
-0.000710984 0.00275797 0
0.000442739 0.0032919 0
0.00211154 0.00553673 0
0.00372503 0.00559728 0
0.00372732 0.00961536 0
0.000511321 0.0116529 0
0.00204626 0.0102927 0
-0.000629857 0.0156904 0
-0.00365818 0.00652186 0
0.000563224 0.00525544 0
-0.00019036 0.00848172 0
-0.00148727 0.0036234 0
0.00131472 0.00595494 0
-0.000609771 0.000153739 0
0.00127615 -0.0139793 0
0.00342263 -0.0216331 0
0.00134028 -0.0273559 0
0.000780474 -0.0379593 0
0.000653589 -0.0487625 0
0.00180687 -0.0498827 0
0.000690747 -0.0569793 0
0.000574392 -0.0690509 0
0.00305396 -0.0784126 0
0.00295222 -0.087824 0
0.00340939 -0.095969 0
0.00406594 -0.103651 0
0.00314634 -0.110205 0
0.00383845 -0.113616 0
0.00543348 -0.117917 0
0.00574091 -0.122771 0
0.00610733 -0.12563 0
0.00659542 -0.127837 0
0.00517378 -0.131272 0
0.00210886 -0.134757 0
-0.000544626 -0.138107 0
-0.0020976 -0.143651 0
-0.00307592 -0.152278 0
-0.00355047 -0.162137 0
-0.0031326 -0.171673 0
-0.00182794 -0.18127 0
-0.000123809 -0.191629 0
0.00148713 -0.202183 0
0.00276397 -0.211626 0
0.00366789 -0.219296 0
0.00425093 -0.22558 0
0.00459664 -0.231276 0
0.00479482 -0.236842 0
0.004906 -0.242184 0
0.0049332 -0.246906 0
0.00483357 -0.250657 0
0.0045608 -0.253314 0
0.00410435 -0.25498 0
0.0035023 -0.255886 0
0.0028271 -0.256287 0
0.00215889 -0.256396 0
0.00156194 -0.256364 0
0.00107305 -0.256282 0
0.000701797 -0.256196 0
0.000438105 -0.256127 0
0.000261711 -0.256077 0
0.00014996 -0.256044 0
8.26019e-05 -0.256024 0
4.38272e-05 -0.256013 0
2.24406e-05 -0.256007 0
1.11068e-05 -0.256003 0
5.32207e-06 -0.256002 0
2.4724e-06 -0.256001 0
1.11499e-06 -0.256 0
4.88713e-07 -0.256 0
2.08426e-07 -0.256 0
8.65793e-08 -0.256 0
3.50633e-08 -0.256 0
1.38567e-08 -0.256 0
5.348e-09 -0.256 0
2.0174e-09 -0.256 0
7.44314e-10 -0.256 0
2.68775e-10 -0.256 0
9.50896e-11 -0.256 0
3.29879e-11 -0.256 0
1.11667e-11 -0.256 0
3.76818e-12 -0.256 0
1.27785e-12 -0.256 0
4.03908e-13 -0.256 0
6.59734e-14 -0.256 0
6.17672e-15 -0.256 0
-7.80261e-17 -0.256 0
2.37647e-18 -0.256 0
3.61029e-16 -0.256 0
2.09264e-16 -0.256 0
-3.4216e-16 -0.256 0
-1.59997e-16 -0.256 0
2.76993e-17 -0.256 0
3.02001e-16 -0.256 0
2.35903e-16 -0.256 0
-5.75702e-16 -0.256 0
3.66955e-16 -0.256 0
5.37408e-16 -0.256 0
-4.74705e-16 -0.256 0
8.41676e-17 -0.256 0
3.10977e-16 -0.256 0
-0.000287964 0.0018582 0
0.000365184 -1.75517e-05 0
8.37613e-05 0.00199951 0
0.000308436 -0.00241366 0
0.00138344 -0.00314491 0
-0.00113925 -0.000685252 0
0.000332009 -0.00751113 0
0.00141187 0.00103568 0
0.00108955 -0.00524841 0
0.00408636 -0.00429506 0
0.00261325 0.00119328 0
0.000434723 -0.00555674 0
0.0039234 -0.00331959 0
0.0031661 -0.00854627 0
0.00184526 -0.022552 0
0.00312253 -0.0274183 0
0.00231621 -0.0301916 0
0.00194729 -0.0379484 0
0.00180666 -0.0453564 0
0.00307896 -0.0529143 0
0.00262662 -0.0600762 0
0.00167439 -0.0715598 0
0.00213701 -0.0811581 0
0.00274992 -0.0882615 0
0.00382406 -0.095344 0
0.00407328 -0.102868 0
0.00316768 -0.109541 0
0.00338079 -0.114087 0
0.00448715 -0.117835 0
0.00514544 -0.121218 0
0.0057548 -0.124339 0
0.00605917 -0.127626 0
0.00473127 -0.131218 0
0.00204779 -0.134571 0
-0.000367734 -0.138283 0
-0.00183209 -0.144206 0
-0.00273521 -0.15287 0
-0.00321958 -0.162754 0
-0.00294674 -0.172478 0
-0.00179723 -0.182134 0
-0.000138282 -0.192212 0
0.00150898 -0.202325 0
0.00280507 -0.211486 0
0.00367109 -0.219151 0
0.00419566 -0.225597 0
0.00451053 -0.231449 0
0.00471711 -0.237061 0
0.0048563 -0.242334 0
0.00490863 -0.246922 0
0.00482272 -0.250529 0
0.0045558 -0.253075 0
0.00410389 -0.254681 0
0.00350827 -0.255578 0
0.00284065 -0.256007 0
0.0021787 -0.256165 0
0.00158489 -0.256188 0
0.00109569 -0.256157 0
0.000721546 -0.256113 0
0.000453707 -0.256074 0
0.000273051 -0.256045 0
0.000157631 -0.256026 0
8.74743e-05 -0.256014 0
4.6752e-05 -0.256008 0
2.41089e-05 -0.256004 0
1.2015e-05 -0.256002 0
5.79564e-06 -0.256001 0
2.70966e-06 -0.256 0
1.2295e-06 -0.256 0
5.42079e-07 -0.256 0
2.32487e-07 -0.256 0
9.70934e-08 -0.256 0
3.95233e-08 -0.256 0
1.56957e-08 -0.256 0
6.08607e-09 -0.256 0
2.30602e-09 -0.256 0
8.54461e-10 -0.256 0
3.09887e-10 -0.256 0
1.10002e-10 -0.256 0
3.82755e-11 -0.256 0
1.30477e-11 -0.256 0
4.36593e-12 -0.256 0
1.4857e-12 -0.256 0
4.85118e-13 -0.256 0
9.28438e-14 -0.256 0
9.37126e-15 -0.256 0
5.82369e-16 -0.256 0
2.13165e-16 -0.256 0
2.80345e-17 -0.256 0
-2.6528e-16 -0.256 0
-8.32802e-17 -0.256 0
4.14857e-16 -0.256 0
-1.87176e-16 -0.256 0
-5.34578e-16 -0.256 0
-1.0009e-15 -0.256 0
-1.42544e-16 -0.256 0
1.53919e-15 -0.256 0
1.54476e-16 -0.256 0
-2.29377e-16 -0.256 0
4.31737e-16 -0.256 0
-1.30182e-16 -0.256 0
0.00128824 0.00177145 0
0.00112673 0.00166943 0
0.000723016 0.00410059 0
0.000106751 0.0066789 0
0.00192339 0.00280227 0
0.00256388 0.00268308 0
0.00141431 -0.00737102 0
0.000694906 0.00128839 0
0.000875652 0.00051924 0
0.00289021 0.00364742 0
0.004095 0.00546703 0
0.00231023 -0.00644115 0
0.00335016 -0.00505146 0
0.00199279 -0.00955609 0
0.00206143 -0.0178025 0
0.00375705 -0.0250938 0
0.00274116 -0.0271402 0
0.00153483 -0.0399249 0
0.00148933 -0.0519045 0
0.00385653 -0.0558712 0
0.00427641 -0.0610402 0
0.00325603 -0.0714743 0
0.00207691 -0.0806956 0
0.00178173 -0.0884197 0
0.00306073 -0.0962778 0
0.00394419 -0.10338 0
0.00374284 -0.109077 0
0.00368871 -0.11361 0
0.00382738 -0.117229 0
0.00409036 -0.120161 0
0.00498833 -0.123549 0
0.00568616 -0.127348 0
0.00466285 -0.13095 0
0.00216678 -0.134321 0
-0.000210885 -0.138474 0
-0.00168398 -0.144823 0
-0.00256127 -0.153577 0
-0.00305786 -0.163452 0
-0.00288063 -0.173256 0
-0.00181653 -0.182911 0
-0.00014459 -0.192725 0
0.00157855 -0.202427 0
0.00291822 -0.211301 0
0.00374981 -0.218945 0
0.00419425 -0.225569 0
0.00444347 -0.231625 0
0.00463016 -0.237338 0
0.00478757 -0.24257 0
0.0048722 -0.247019 0
0.00481412 -0.25046 0
0.0045642 -0.25287 0
0.0041202 -0.254398 0
0.00352737 -0.255274 0
0.00286018 -0.255727 0
0.00219746 -0.255934 0
0.00160196 -0.256013 0
0.00111031 -0.256033 0
0.000733288 -0.25603 0
0.000462535 -0.256022 0
0.00027928 -0.256014 0
0.000161771 -0.256008 0
9.00758e-05 -0.256005 0
4.83039e-05 -0.256002 0
2.4991e-05 -0.256001 0
1.24944e-05 -0.256001 0
6.04542e-06 -0.256 0
2.8348e-06 -0.256 0
1.28992e-06 -0.256 0
5.70255e-07 -0.256 0
2.45201e-07 -0.256 0
1.02654e-07 -0.256 0
4.18838e-08 -0.256 0
1.66699e-08 -0.256 0
6.47741e-09 -0.256 0
2.45932e-09 -0.256 0
9.12951e-10 -0.256 0
3.31584e-10 -0.256 0
1.17976e-10 -0.256 0
4.11067e-11 -0.256 0
1.39955e-11 -0.256 0
4.73129e-12 -0.256 0
1.58733e-12 -0.256 0
5.24872e-13 -0.256 0
1.0915e-13 -0.256 0
1.17872e-14 -0.256 0
9.97745e-16 -0.256 0
1.61056e-16 -0.256 0
8.54575e-17 -0.256 0
-3.41467e-16 -0.256 0
-7.98336e-17 -0.256 0
1.83799e-16 -0.256 0
-1.30235e-16 -0.256 0
-2.28148e-16 -0.256 0
-2.08542e-16 -0.256 0
5.72826e-16 -0.256 0
-1.16518e-16 -0.256 0
-8.69859e-16 -0.256 0
7.95647e-16 -0.256 0
3.01886e-16 -0.256 0
-5.91162e-16 -0.256 0
0.00113837 0.00139791 0
0.0012386 0.000791966 0
0.00167247 0.00446895 0
0.00272843 0.0058993 0
0.00325482 0.00341515 0
0.00500651 0.0103073 0
0.00321468 0.00459676 0
0.000804642 0.00857311 0
0.00095923 0.00397296 0
-0.000603772 0.00403627 0
0.00330368 0.00594298 0
0.00503874 -0.00605177 0
0.00282557 -0.00602053 0
0.00247591 -0.00994018 0
0.00232544 -0.0175226 0
0.00382157 -0.0228798 0
0.00374917 -0.0275862 0
0.00082043 -0.0415269 0
-0.000114104 -0.0454827 0
0.00222025 -0.0514781 0
0.00326151 -0.0615747 0
0.00306839 -0.0722749 0
0.00191493 -0.0805128 0
0.00219612 -0.0886895 0
0.00395122 -0.0976033 0
0.00453277 -0.104361 0
0.00407219 -0.108526 0
0.00360871 -0.112458 0
0.00303598 -0.11661 0
0.00302365 -0.120076 0
0.00428382 -0.123672 0
0.0055521 -0.127144 0
0.00495743 -0.130284 0
0.00257225 -0.133739 0
3.46812e-06 -0.138522 0
-0.00171234 -0.145434 0
-0.00267928 -0.154354 0
-0.00315639 -0.164206 0
-0.00296565 -0.174026 0
-0.00188921 -0.183658 0
-0.000147013 -0.193255 0
0.00168795 -0.202585 0
0.00309836 -0.211154 0
0.00390593 -0.218731 0
0.00425607 -0.225511 0
0.00440807 -0.231792 0
0.00454404 -0.237645 0
0.00470407 -0.242869 0
0.00482272 -0.247187 0
0.00480367 -0.250451 0
0.00458151 -0.252705 0
0.00414993 -0.254136 0
0.00355763 -0.254981 0
0.00288474 -0.255452 0
0.00221469 -0.255704 0
0.00161278 -0.255838 0
0.00111652 -0.255909 0
0.000736583 -0.255948 0
0.000464161 -0.255971 0
0.000280029 -0.255983 0
0.000162093 -0.255991 0
9.02044e-05 -0.255995 0
4.83509e-05 -0.255997 0
2.50063e-05 -0.255999 0
1.24985e-05 -0.255999 0
6.04605e-06 -0.256 0
2.83461e-06 -0.256 0
1.28966e-06 -0.256 0
5.70081e-07 -0.256 0
2.45107e-07 -0.256 0
1.02609e-07 -0.256 0
4.18638e-08 -0.256 0
1.66614e-08 -0.256 0
6.47401e-09 -0.256 0
2.45789e-09 -0.256 0
9.12451e-10 -0.256 0
3.31354e-10 -0.256 0
1.1789e-10 -0.256 0
4.1099e-11 -0.256 0
1.39771e-11 -0.256 0
4.72478e-12 -0.256 0
1.58605e-12 -0.256 0
5.24731e-13 -0.256 0
1.09371e-13 -0.256 0
1.17675e-14 -0.256 0
6.12211e-16 -0.256 0
2.90499e-16 -0.256 0
1.69342e-16 -0.256 0
-3.71465e-16 -0.256 0
-2.51992e-16 -0.256 0
-2.95203e-16 -0.256 0
1.98125e-16 -0.256 0
2.50839e-16 -0.256 0
3.80468e-16 -0.256 0
3.24152e-16 -0.256 0
-8.90749e-16 -0.256 0
1.58046e-16 -0.256 0
4.24772e-16 -0.256 0
-1.18975e-16 -0.256 0
-1.18878e-16 -0.256 0
0.000779 -0.00203654 0
0.00105816 -0.00435679 0
0.00265557 -0.00290955 0
0.00271541 -0.0044456 0
0.000827289 -0.000140021 0
0.00405724 0.0062866 0
0.00331902 0.00418571 0
0.00290368 0.0060685 0
0.00510321 0.000492386 0
0.0024344 -0.00403499 0
0.00178221 -0.00364718 0
0.0052048 -0.00782967 0
0.00333938 -0.0115201 0
0.00214383 -0.0118112 0
0.000823983 -0.0198902 0
0.00213365 -0.0210343 0
0.0036312 -0.0298294 0
0.000123461 -0.0350354 0
-0.000280303 -0.0415637 0
0.00186098 -0.0519374 0
0.00441763 -0.0611615 0
0.0037019 -0.073113 0
0.000674527 -0.0811936 0
0.0019224 -0.0886273 0
0.00541657 -0.0982419 0
0.00601474 -0.104261 0
0.00440043 -0.106941 0
0.00274655 -0.111556 0
0.00178599 -0.116712 0
0.00215725 -0.121186 0
0.00401077 -0.124619 0
0.0057876 -0.126963 0
0.00556602 -0.129229 0
0.00321205 -0.132749 0
0.000261731 -0.138244 0
-0.0019161 -0.145848 0
-0.00308259 -0.155073 0
-0.00350707 -0.164953 0
-0.00320173 -0.17477 0
-0.00202336 -0.184399 0
-0.000153687 -0.193851 0
0.00182998 -0.202864 0
0.0033353 -0.211109 0
0.00412715 -0.218551 0
0.00437164 -0.22543 0
0.00440168 -0.231927 0
0.00446291 -0.237949 0
0.00461341 -0.2432 0
0.00476726 -0.247411 0