<?xml version='1.0' encoding='UTF-8'?>
<VTKFile byte_order='LittleEndian' version='0.1' type = 'UnstructuredGrid'>
<UnstructuredGrid>
<FieldData>
<DataArray type='Float64' Name='Time' NumberOfComponents='1' NumberOfTuples='1' format='ascii'>
0.8
</DataArray>
</FieldData>
<Piece NumberOfCells='808' NumberOfPoints='808'>
<Points>
<DataArray NumberOfComponents='3' type='Float64' Name='position' format='ascii'>
0 0 0
0 0.025 0
0 0.05 0
0 0.075 0
0 0.1 0
0 0.125 0
0 0.15 0
0 0.175 0
0.025 0 0
0.05 0 0
0.075 0 0
0.1 0 0
0.125 0 0
0.15 0 0
0.175 0 0
0.2 0 0
0.225 0 0
0.25 0 0
0.275 0 0
0.3 0 0
0.325 0 0
0.35 0 0
0.376684 -0.0119202 0
0.401723 -0.0185099 0
0.42677 -0.0238858 0
0.451767 -0.0285828 0
0.476734 -0.0328942 0
0.501763 -0.0368793 0
0.526793 -0.0406389 0
0.551813 -0.0441201 0
0.576847 -0.0472987 0
0.601823 -0.0502008 0
0.626732 -0.0527583 0
0.651623 -0.0549662 0
0.676501 -0.0568999 0
0.70135 -0.0585689 0
0.726187 -0.0599363 0
0.751037 -0.061018 0
0.775907 -0.0618782 0
0.800787 -0.0625634 0
0.825665 -0.0630834 0
0.850538 -0.0634394 0
0.875412 -0.0636504 0
0.900297 -0.0637539 0
0.925202 -0.0637911 0
0.950129 -0.0637955 0
0.975077 -0.0637877 0
1.00004 -0.0637781 0
1.02502 -0.0637707 0
1.05001 -0.0637658 0
1.07501 -0.063763 0
1.1 -0.0637615 0
1.125 -0.0637608 0
1.15 -0.0637605 0
1.175 -0.0637603 0
1.2 -0.0637602 0
1.225 -0.0637602 0
1.25 -0.0637602 0
1.275 -0.0637602 0
1.3 -0.0637602 0
1.325 -0.0637602 0
1.35 -0.0637602 0
1.375 -0.0637602 0
1.4 -0.0637602 0
1.425 -0.0637602 0
1.45 -0.0637602 0
1.475 -0.0637602 0
1.5 -0.0637602 0
1.525 -0.0637602 0
1.55 -0.0637602 0
1.575 -0.0637602 0
1.6 -0.0637602 0
1.625 -0.0637602 0
1.65 -0.0637602 0
1.675 -0.0637602 0
1.7 -0.0637602 0
1.725 -0.0637602 0
1.75 -0.0637602 0
1.775 -0.0637602 0
1.8 -0.0637602 0
1.825 -0.0637602 0
1.85 -0.0637602 0
1.875 -0.0637602 0
1.9 -0.0637602 0
1.925 -0.0637602 0
1.95 -0.0637602 0
1.975 -0.0637602 0
2 -0.0637602 0
2.025 -0.0637602 0
2.05 -0.0637602 0
2.075 -0.0637602 0
2.1 -0.0637602 0
2.125 -0.0637602 0
2.15 -0.0637602 0
2.175 -0.0637602 0
2.2 -0.0637602 0
2.225 -0.0637602 0
2.25 -0.0637602 0
2.275 -0.0637602 0
2.3 -0.0637602 0
2.325 -0.0637602 0
2.35 -0.0637602 0
2.375 -0.0637602 0
2.4 -0.0637602 0
2.425 -0.0637602 0
2.45 -0.0637602 0
2.475 -0.0637602 0
2.5 -0.0637602 0
0.0249194 0.0245579 0
0.0498923 0.0243012 0
0.0748866 0.024089 0
0.0998911 0.0238985 0
0.124894 0.0237385 0
0.149916 0.0235396 0
0.174922 0.0233799 0
0.199905 0.0231696 0
0.224918 0.0228694 0
0.249946 0.0225178 0
0.274984 0.0219914 0
0.3001 0.0211348 0
0.325419 0.0196815 0
0.351241 0.0167009 0
0.37687 0.0110125 0
0.401854 0.00555194 0
0.426852 0.000622034 0
0.45182 -0.00387525 0
0.476784 -0.00807472 0
0.501784 -0.0120051 0
0.526798 -0.0157117 0
0.551813 -0.0191659 0
0.576824 -0.0223306 0
0.601794 -0.0252017 0
0.626718 -0.0277417 0
0.651616 -0.0299456 0
0.676495 -0.031859 0
0.701352 -0.0334996 0
0.726198 -0.0348554 0
0.75105 -0.035943 0
0.775917 -0.0368108 0
0.800792 -0.0374978 0
0.825667 -0.0380173 0
0.85054 -0.0383764 0
0.875416 -0.0385958 0
0.900303 -0.0387109 0
0.925208 -0.0387603 0
0.950135 -0.0387749 0
0.975082 -0.038775 0
1.00005 -0.0387708 0
1.02503 -0.0387666 0
1.05001 -0.0387637 0
1.07501 -0.038762 0
1.1 -0.038761 0
1.125 -0.0387606 0
1.15 -0.0387604 0
1.175 -0.0387603 0
1.2 -0.0387602 0
1.225 -0.0387602 0
1.25 -0.0387602 0
1.275 -0.0387602 0
1.3 -0.0387602 0
1.325 -0.0387602 0
1.35 -0.0387602 0
1.375 -0.0387602 0
1.4 -0.0387602 0
1.425 -0.0387602 0
1.45 -0.0387602 0
1.475 -0.0387602 0
1.5 -0.0387602 0
1.525 -0.0387602 0
1.55 -0.0387602 0
1.575 -0.0387602 0
1.6 -0.0387602 0
1.625 -0.0387602 0
1.65 -0.0387602 0
1.675 -0.0387602 0
1.7 -0.0387602 0
1.725 -0.0387602 0
1.75 -0.0387602 0
1.775 -0.0387602 0
1.8 -0.0387602 0
1.825 -0.0387602 0
1.85 -0.0387602 0
1.875 -0.0387602 0
1.9 -0.0387602 0
1.925 -0.0387602 0
1.95 -0.0387602 0
1.975 -0.0387602 0
2 -0.0387602 0
2.025 -0.0387602 0
2.05 -0.0387602 0
2.075 -0.0387602 0
2.1 -0.0387602 0
2.125 -0.0387602 0
2.15 -0.0387602 0
2.175 -0.0387602 0
2.2 -0.0387602 0
2.225 -0.0387602 0
2.25 -0.0387602 0
2.275 -0.0387602 0
2.3 -0.0387602 0
2.325 -0.0387602 0
2.35 -0.0387602 0
2.375 -0.0387602 0
2.4 -0.0387602 0
2.425 -0.0387602 0
2.45 -0.0387602 0
2.475 -0.0387602 0
2.5 -0.0387602 0
0.0249126 0.049362 0
0.0498826 0.0489692 0
0.0748765 0.0486489 0
0.0998826 0.0483476 0
0.124883 0.0480877 0
0.149907 0.047743 0
0.17492 0.0474525 0
0.199913 0.0470773 0
0.224946 0.0465576 0
0.250011 0.0459572 0
0.27512 0.0450828 0
0.300348 0.0437222 0
0.325756 0.0417048 0
0.351365 0.0386227 0
0.376801 0.0342165 0
0.401891 0.0295785 0
0.426883 0.0250697 0
0.451833 0.0207955 0
0.476792 0.0167371 0
0.50178 0.0128782 0
0.526791 0.00921724 0
0.551808 0.00578765 0
0.576811 0.00263812 0
0.601779 -0.000212832 0
0.626709 -0.00274076 0
0.651612 -0.00493598 0
0.676492 -0.00682771 0
0.701355 -0.00844091 0
0.726209 -0.00978161 0
0.751065 -0.010869 0
0.775929 -0.0117415 0
0.800799 -0.0124316 0
0.825672 -0.0129535 0
0.850545 -0.0133179 0
0.875422 -0.0135464 0
0.900309 -0.0136729 0
0.925214 -0.0137334 0
0.950139 -0.0137574 0
0.975086 -0.0137643 0
1.00005 -0.0137647 0
1.02503 -0.0137633 0
1.05001 -0.013762 0
1.07501 -0.0137612 0
1.1 -0.0137607 0
1.125 -0.0137604 0
1.15 -0.0137603 0
1.175 -0.0137602 0
1.2 -0.0137602 0
1.225 -0.0137602 0
1.25 -0.0137602 0
1.275 -0.0137602 0
1.3 -0.0137602 0
1.325 -0.0137602 0
1.35 -0.0137602 0
1.375 -0.0137602 0
1.4 -0.0137602 0
1.425 -0.0137602 0
1.45 -0.0137602 0
1.475 -0.0137602 0
1.5 -0.0137602 0
1.525 -0.0137602 0
1.55 -0.0137602 0
1.575 -0.0137602 0
1.6 -0.0137602 0
1.625 -0.0137602 0
1.65 -0.0137602 0
1.675 -0.0137602 0
1.7 -0.0137602 0
1.725 -0.0137602 0
1.75 -0.0137602 0
1.775 -0.0137602 0
1.8 -0.0137602 0
1.825 -0.0137602 0
1.85 -0.0137602 0
1.875 -0.0137602 0
1.9 -0.0137602 0
1.925 -0.0137602 0
1.95 -0.0137602 0
1.975 -0.0137602 0
2 -0.0137602 0
2.025 -0.0137602 0
2.05 -0.0137602 0
2.075 -0.0137602 0
2.1 -0.0137602 0
2.125 -0.0137602 0
2.15 -0.0137602 0
2.175 -0.0137602 0
2.2 -0.0137602 0
2.225 -0.0137602 0
2.25 -0.0137602 0
2.275 -0.0137602 0
2.3 -0.0137602 0
2.325 -0.0137602 0
2.35 -0.0137602 0
2.375 -0.0137602 0
2.4 -0.0137602 0
2.425 -0.0137602 0
2.45 -0.0137602 0
2.475 -0.0137602 0
2.5 -0.0137602 0
0.0249228 0.0742228 0
0.049901 0.0737321 0
0.074905 0.0732819 0
0.0999162 0.0728728 0
0.12493 0.0725417 0
0.149955 0.0720795 0
0.17497 0.0716571 0
0.199989 0.0711162 0
0.22504 0.0703984 0
0.250131 0.0695718 0
0.275289 0.0684195 0
0.300567 0.0667693 0
0.325949 0.0645157 0
0.351372 0.0615363 0
0.376691 0.0577748 0
0.401822 0.053673 0
0.426824 0.0495239 0
0.451779 0.0454953 0
0.47674 0.0415551 0
0.501729 0.0377463 0
0.526756 0.0341114 0
0.551789 0.0307011 0
0.576801 0.0275747 0
0.601776 0.0247485 0
0.626712 0.0222397 0
0.651612 0.0200616 0
0.676491 0.018193 0
0.701356 0.016605 0
0.726216 0.0152813 0
0.751076 0.0141994 0
0.775941 0.0133258 0
0.80081 0.0126331 0
0.82568 0.0121075 0
0.850552 0.0117371 0
0.875428 0.0114996 0
0.900314 0.0113626 0
0.925218 0.0112917 0
0.950143 0.0112591 0
0.975088 0.0112458 0
1.00005 0.0112411 0
1.02503 0.0112398 0
1.05001 0.0112395 0
1.07501 0.0112396 0
1.1 0.0112397 0
1.125 0.0112397 0
1.15 0.0112398 0
1.175 0.0112398 0
1.2 0.0112398 0
1.225 0.0112398 0
1.25 0.0112398 0
1.275 0.0112398 0
1.3 0.0112398 0
1.325 0.0112398 0
1.35 0.0112398 0
1.375 0.0112398 0
1.4 0.0112398 0
1.425 0.0112398 0
1.45 0.0112398 0
1.475 0.0112398 0
1.5 0.0112398 0
1.525 0.0112398 0
1.55 0.0112398 0
1.575 0.0112398 0
1.6 0.0112398 0
1.625 0.0112398 0
1.65 0.0112398 0
1.675 0.0112398 0
1.7 0.0112398 0
1.725 0.0112398 0
1.75 0.0112398 0
1.775 0.0112398 0
1.8 0.0112398 0
1.825 0.0112398 0
1.85 0.0112398 0
1.875 0.0112398 0
1.9 0.0112398 0
1.925 0.0112398 0
1.95 0.0112398 0
1.975 0.0112398 0
2 0.0112398 0
2.025 0.0112398 0
2.05 0.0112398 0
2.075 0.0112398 0
2.1 0.0112398 0
2.125 0.0112398 0
2.15 0.0112398 0
2.175 0.0112398 0
2.2 0.0112398 0
2.225 0.0112398 0
2.25 0.0112398 0
2.275 0.0112398 0
2.3 0.0112398 0
2.325 0.0112398 0
2.35 0.0112398 0
2.375 0.0112398 0
2.4 0.0112398 0
2.425 0.0112398 0
2.45 0.0112398 0
2.475 0.0112398 0
2.5 0.0112398 0
0.0249365 0.0990448 0
0.0499285 0.0984083 0
0.0749369 0.0978463 0
0.0999525 0.0973572 0
0.124997 0.0969192 0
0.150026 0.096377 0
0.175057 0.0958455 0
0.200116 0.0951561 0
0.225178 0.0942867 0
0.25028 0.0932824 0
0.275467 0.0919267 0
0.300731 0.0901329 0
0.326045 0.0878691 0
0.351353 0.0850282 0
0.376598 0.0816363 0
0.401723 0.0779016 0
0.426735 0.0740741 0
0.451698 0.0702232 0
0.476658 0.0663704 0
0.501659 0.0626001 0
0.526707 0.0589694 0
0.551759 0.0555709 0
0.576786 0.0524727 0
0.601776 0.0496806 0
0.626719 0.0472043 0
0.651617 0.045053 0
0.676491 0.0432073 0
0.701357 0.0416402 0
0.726219 0.0403324 0
0.751083 0.0392583 0
0.77595 0.0383863 0
0.80082 0.0376923 0
0.825691 0.0371637 0
0.850561 0.036788 0
0.875435 0.0365426 0
0.900319 0.036396 0
0.925221 0.0363156 0
0.950144 0.0362748 0
0.975089 0.0362554 0
1.00005 0.0362466 0
1.02503 0.0362427 0
1.05001 0.0362411 0
1.07501 0.0362403 0
1.1 0.03624 0
1.125 0.0362399 0
1.15 0.0362398 0
1.175 0.0362398 0
1.2 0.0362398 0
1.225 0.0362398 0
1.25 0.0362398 0
1.275 0.0362398 0
1.3 0.0362398 0
1.325 0.0362398 0
1.35 0.0362398 0
1.375 0.0362398 0
1.4 0.0362398 0
1.425 0.0362398 0
1.45 0.0362398 0
1.475 0.0362398 0
1.5 0.0362398 0
1.525 0.0362398 0
1.55 0.0362398 0
1.575 0.0362398 0
1.6 0.0362398 0
1.625 0.0362398 0
1.65 0.0362398 0
1.675 0.0362398 0
1.7 0.0362398 0
1.725 0.0362398 0
1.75 0.0362398 0
1.775 0.0362398 0
1.8 0.0362398 0
1.825 0.0362398 0
1.85 0.0362398 0
1.875 0.0362398 0
1.9 0.0362398 0
1.925 0.0362398 0
1.95 0.0362398 0
1.975 0.0362398 0
2 0.0362398 0
2.025 0.0362398 0
2.05 0.0362398 0
2.075 0.0362398 0
2.1 0.0362398 0
2.125 0.0362398 0
2.15 0.0362398 0
2.175 0.0362398 0
2.2 0.0362398 0
2.225 0.0362398 0
2.25 0.0362398 0
2.275 0.0362398 0
2.3 0.0362398 0
2.325 0.0362398 0
2.35 0.0362398 0
2.375 0.0362398 0
2.4 0.0362398 0
2.425 0.0362398 0
2.45 0.0362398 0
2.475 0.0362398 0
2.5 0.0362398 0
0.0249579 0.123915 0
0.0499672 0.123149 0
0.0749929 0.122487 0
0.100028 0.121874 0
0.125072 0.121284 0
0.150089 0.120692 0
0.175156 0.120066 0
0.200265 0.119267 0
0.225325 0.118316 0
0.250414 0.117194 0
0.275602 0.115731 0
0.300827 0.113898 0
0.326061 0.111677 0
0.351303 0.108948 0
0.376514 0.105758 0
0.401629 0.10228 0
0.426639 0.0986731 0
0.451596 0.0949635 0
0.476568 0.0911984 0
0.501602 0.0874462 0
0.526671 0.0838094 0
0.551732 0.0804224 0
0.57677 0.0773497 0
0.601772 0.0745946 0
0.626721 0.0721604 0
0.651621 0.0700423 0
0.676495 0.0682183 0
0.701359 0.0666677 0
0.72622 0.0653724 0
0.751085 0.0643053 0
0.775956 0.0634355 0
0.80083 0.0627416 0
0.825703 0.0622122 0
0.850572 0.0618336 0
0.875442 0.0615824 0
0.900323 0.0614278 0
0.925222 0.0613389 0
0.950144 0.0612904 0
0.975088 0.061265 0
1.00005 0.0612521 0
1.02503 0.0612457 0
1.05001 0.0612426 0
1.07501 0.0612411 0
1.1 0.0612404 0
1.125 0.06124 0
1.15 0.0612399 0
1.175 0.0612398 0
1.2 0.0612398 0
1.225 0.0612398 0
1.25 0.0612398 0
1.275 0.0612398 0
1.3 0.0612398 0
1.325 0.0612398 0
1.35 0.0612398 0
1.375 0.0612398 0
1.4 0.0612398 0
1.425 0.0612398 0
1.45 0.0612398 0
1.475 0.0612398 0
1.5 0.0612398 0
1.525 0.0612398 0
1.55 0.0612398 0
1.575 0.0612398 0
1.6 0.0612398 0
1.625 0.0612398 0
1.65 0.0612398 0
1.675 0.0612398 0
1.7 0.0612398 0
1.725 0.0612398 0
1.75 0.0612398 0
1.775 0.0612398 0
1.8 0.0612398 0
1.825 0.0612398 0
1.85 0.0612398 0
1.875 0.0612398 0
1.9 0.0612398 0
1.925 0.0612398 0
1.95 0.0612398 0
1.975 0.0612398 0
2 0.0612398 0
2.025 0.0612398 0
2.05 0.0612398 0
2.075 0.0612398 0
2.1 0.0612398 0
2.125 0.0612398 0
2.15 0.0612398 0
2.175 0.0612398 0
2.2 0.0612398 0
2.225 0.0612398 0
2.25 0.0612398 0
2.275 0.0612398 0
2.3 0.0612398 0
2.325 0.0612398 0
2.35 0.0612398 0
2.375 0.0612398 0
2.4 0.0612398 0
2.425 0.0612398 0
2.45 0.0612398 0
2.475 0.0612398 0
2.5 0.0612398 0
0.0249946 0.1488 0
0.0500278 0.147928 0
0.0750738 0.147154 0
0.100116 0.146446 0
0.125151 0.145753 0
0.150163 0.145115 0
0.175254 0.14439 0
0.200375 0.143532 0
0.225426 0.142572 0
0.250514 0.141366 0
0.275687 0.139846 0
0.300853 0.138053 0
0.326014 0.135887 0
0.351227 0.13322 0
0.376441 0.13014 0
0.401552 0.126835 0
0.426544 0.123382 0
0.451491 0.119769 0
0.476485 0.11603 0
0.501551 0.112268 0
0.526642 0.108638 0
0.551721 0.105271 0
0.576768 0.102221 0
0.601767 0.0995015 0
0.626714 0.09711 0
0.65162 0.0950246 0
0.6765 0.0932213 0
0.701363 0.0916859 0
0.726219 0.090401 0
0.751082 0.0893383 0
0.775957 0.0884696 0
0.800838 0.0877772 0
0.825713 0.0872502 0
0.850581 0.0868724 0
0.875448 0.0866187 0
0.900324 0.0864582 0
0.925221 0.0863617 0
0.950141 0.086306 0
0.975085 0.0862748 0
1.00005 0.0862578 0
1.02503 0.0862488 0
1.05001 0.0862442 0
1.07501 0.0862418 0
1.1 0.0862407 0
1.125 0.0862402 0
1.15 0.08624 0
1.175 0.0862399 0
1.2 0.0862398 0
1.225 0.0862398 0
1.25 0.0862398 0
1.275 0.0862398 0
1.3 0.0862398 0
1.325 0.0862398 0
1.35 0.0862398 0
1.375 0.0862398 0
1.4 0.0862398 0
1.425 0.0862398 0
1.45 0.0862398 0
1.475 0.0862398 0
1.5 0.0862398 0
1.525 0.0862398 0
1.55 0.0862398 0
1.575 0.0862398 0
1.6 0.0862398 0
1.625 0.0862398 0
1.65 0.0862398 0
1.675 0.0862398 0
1.7 0.0862398 0
1.725 0.0862398 0
1.75 0.0862398 0
1.775 0.0862398 0
1.8 0.0862398 0
1.825 0.0862398 0
1.85 0.0862398 0
1.875 0.0862398 0
1.9 0.0862398 0
1.925 0.0862398 0
1.95 0.0862398 0
1.975 0.0862398 0
2 0.0862398 0
2.025 0.0862398 0
2.05 0.0862398 0
2.075 0.0862398 0
2.1 0.0862398 0
2.125 0.0862398 0
2.15 0.0862398 0
2.175 0.0862398 0
2.2 0.0862398 0
2.225 0.0862398 0
2.25 0.0862398 0
2.275 0.0862398 0
2.3 0.0862398 0
2.325 0.0862398 0
2.35 0.0862398 0
2.375 0.0862398 0
2.4 0.0862398 0
2.425 0.0862398 0
2.45 0.0862398 0
2.475 0.0862398 0
2.5 0.0862398 0
0.0250212 0.173713 0
0.0500582 0.172798 0
0.0750876 0.171992 0
0.100135 0.171294 0
0.125231 0.170544 0
0.150255 0.169881 0
0.175336 0.16907 0
0.200414 0.168191 0
0.225438 0.16726 0
0.250582 0.16597 0
0.275781 0.164394 0
0.300873 0.162654 0
0.325962 0.160515 0
0.35118 0.157834 0
0.376431 0.154799 0
0.401548 0.151605 0
0.426512 0.148241 0
0.451434 0.144641 0
0.476419 0.140856 0
0.501487 0.137064 0
0.526609 0.133446 0
0.551728 0.130106 0
0.576788 0.127087 0
0.601771 0.124409 0
0.626706 0.122056 0
0.651619 0.119998 0
0.676508 0.118216 0
0.701369 0.116698 0
0.726217 0.115424 0
0.751077 0.114362 0
0.775956 0.113493 0
0.800844 0.112803 0
0.825723 0.112282 0
0.850589 0.11191 0
0.87545 0.111656 0
0.900322 0.111491 0
0.925216 0.111388 0
0.950135 0.111324 0
0.97508 0.111287 0
1.00004 0.111265 0
1.02502 0.111253 0
1.05001 0.111246 0
1.07501 0.111243 0
1.1 0.111241 0
1.125 0.11124 0
1.15 0.11124 0
1.175 0.11124 0
1.2 0.11124 0
1.225 0.11124 0
1.25 0.11124 0
1.275 0.11124 0
1.3 0.11124 0
1.325 0.11124 0
1.35 0.11124 0
1.375 0.11124 0
1.4 0.11124 0
1.425 0.11124 0
1.45 0.11124 0
1.475 0.11124 0
1.5 0.11124 0
1.525 0.11124 0
1.55 0.11124 0
1.575 0.11124 0
1.6 0.11124 0
1.625 0.11124 0
1.65 0.11124 0
1.675 0.11124 0
1.7 0.11124 0
1.725 0.11124 0
1.75 0.11124 0
1.775 0.11124 0
1.8 0.11124 0
1.825 0.11124 0
1.85 0.11124 0
1.875 0.11124 0
1.9 0.11124 0
1.925 0.11124 0
1.95 0.11124 0
1.975 0.11124 0
2 0.11124 0
2.025 0.11124 0
2.05 0.11124 0
2.075 0.11124 0
2.1 0.11124 0
2.125 0.11124 0
2.15 0.11124 0
2.175 0.11124 0
2.2 0.11124 0
2.225 0.11124 0
2.25 0.11124 0
2.275 0.11124 0
2.3 0.11124 0
2.325 0.11124 0
2.35 0.11124 0
2.375 0.11124 0
2.4 0.11124 0
2.425 0.11124 0
2.45 0.11124 0
2.475 0.11124 0
2.5 0.11124 0
</DataArray>
</Points>
<PointData>
<DataArray NumberOfComponents='1' type='Int32' Name='Particle Type' format='ascii'>
0
0
0
0
0
0
0
0
0
0
0
0
0
0
0
0
0
0
0
0
0
0
1
1
1
1
1
1
1
1
1
1
1
1
1
1
1
1
1
1
1
1
1
1
1
1
1
1
1
1
1
1
1
1
1
1
1
1
1
1
1
1
1
1
1
1
1
1
1
1
1
1
1
1
1
1
1
1
1
1
1
1
1
1
1
1
1
1
1
1
1
1
1
1
1
1
1
1
1
1
1
1
1
1
1
1
1
1
1
1
1
1
1
1
1
1
1
1
1
1
1
1
1
1
1
1
1
1
1
1
1
1
1
1
1
1
1
1
1
1
1
1
1
1
1
1
1
1
1
1
1
1
1
1
1
1
1
1
1
1
1
1
1
1
1
1
1
1
1
1
1
1
1
1
1
1
1
1
1
1
1
1
1
1
1
1
1
1
1
1
1
1
1
1
1
1
1
1
1
1
1
1
1
1
1
1
1
1
1
1
1
1
1
1
1
1
1
1
1
1
1
1
1
1
1
1
1
1
1
1
1
1
1
1
1
1
1
1
1
1
1
1
1
1
1
1
1
1
1
1
1
1
1
1
1
1
1
1
1
1
1
1
1
1
1
1
1
1
1
1
1
1
1
1
1
1
1
1
1
1
1
1
1
1
1
1
1
1
1
1
1
1
1
1
1
1
1
1
1
1
1
1
1
1
1
1
1
1
1
1
1
1
1
1
1
1
1
1
1
1
1
1
1
1
1
1
1
1
1
1
1
1
1
1
1
1
1
1
1
1
1
1
1
1
1
1
1
1
1
1
1
1
1
1
1
1
1
1
1
1
1
1
1
1
1
1
1
1
1
1
1
1
1
1
1
1
1
1
1
1
1
1
1
1
1
1
1
1
1
1
1
1
1
1
1
1
1
1
1
1
1
1
1
1
1
1
1
1
1
1
1
1
1
1
1
1
1
1
1
1
1
1
1
1
1
1
1
1
1
1
1
1
1
1
1
1
1
1
1
1
1
1
1
1
1
1
1
1
1
1
1
1
1
1
1
1
1
1
1
1
1
1
1
1
1
1
1
1
1
1
1
1
1
1
1
1
1
1
1
1
1
1
1
1
1
1
1
1
1
1
1
1
1
1
1
1
1
1
1
1
1
1
1
1
1
1
1
1
1
1
1
1
1
1
1
1
1
1
1
1
1
1
1
1
1
1
1
1
1
1
1
1
1
1
1
1
1
1
1
1
1
1
1
1
1
1
1
1
1
1
1
1
1
1
1
1
1
1
1
1
1
1
1
1
1
1
1
1
1
1
1
1
1
1
1
1
1
1
1
1
1
1
1
1
1
1
1
1
1
1
1
1
1
1
1
1
1
1
1
1
1
1
1
1
1
1
1
1
1
1
1
1
1
1
1
1
1
1
1
1
1
1
1
1
1
1
1
1
1
1
1
1
1
1
1
1
1
1
1
1
1
1
1
1
1
1
1
1
1
1
1
1
1
1
1
1
1
1
1
1
1
1
1
1
1
1
1
1
1
1
1
1
1
1
1
1
1
1
1
1
1
1
1
1
1
1
1
1
1
1
1
1
1
1
1
1
1
1
1
1
1
1
1
1
1
1
1
1
1
1
1
1
1
1
1
1
1
1
1
1
1
1
1
1
1
1
1
1
1
1
1
1
1
1
1
1
1
1
1
1
1
1
1
1
1
1
1
1
1
1
1
1
1
1
1
1
1
1
1
1
1
1
1
1
1
1
1
1
1
1
1
1
1
1
1
1
1
1
1
1
1
1
1
1
1
1
1
1
1
1
1
1
1
1
1
1
1
1
1
1
1
1
1
1
1
1
1
1
</DataArray>
<DataArray NumberOfComponents='3' type='Float64' Name='Velocity' format='ascii'>
0 0 0
0 0 0
0 0 0
0 0 0
0 0 0
0 0 0
0 0 0
0 0 0
0 0 0
0 0 0
0 0 0
0 0 0
0 0 0
0 0 0
0 0 0
0 0 0
0 0 0
0 0 0
0 0 0
0 0 0
0 0 0
0 0 0
0.00314835 -0.017202 0
0.00296424 -0.0232033 0
0.00168537 -0.0276195 0
0.00173251 -0.0317146 0
9.1434e-05 -0.0370544 0
-0.00170174 -0.0425434 0
-0.00130443 -0.0485056 0
-0.00166189 -0.0572691 0
-0.000750994 -0.0656193 0
0.00190096 -0.0748578 0
0.00352703 -0.0857065 0
0.00413289 -0.0950491 0
0.00497024 -0.102949 0
0.00571165 -0.111763 0
0.00564033 -0.121197 0
0.00498007 -0.129286 0
0.00441199 -0.135536 0
0.0042666 -0.14094 0
0.00439668 -0.146238 0
0.00447555 -0.151205 0
0.00427237 -0.155215 0
0.00374801 -0.157915 0
0.00301112 -0.159402 0
0.00222226 -0.160033 0
0.00151457 -0.160187 0
0.000958735 -0.160136 0
0.000566825 -0.160032 0
0.000314623 -0.159941 0
0.000164728 -0.159878 0
8.16974e-05 -0.15984 0
3.8525e-05 -0.159819 0
1.73308e-05 -0.159809 0
7.45964e-06 -0.159804 0
3.08025e-06 -0.159802 0
1.22304e-06 -0.159801 0
4.67951e-07 -0.1598 0
1.72856e-07 -0.1598 0
6.17498e-08 -0.1598 0
2.13662e-08 -0.1598 0
7.17086e-09 -0.1598 0
2.33742e-09 -0.1598 0
7.40838e-10 -0.1598 0
2.28594e-10 -0.1598 0
6.87554e-11 -0.1598 0
2.01687e-11 -0.1598 0
5.76682e-12 -0.1598 0
1.6217e-12 -0.1598 0
4.35478e-13 -0.1598 0
8.86039e-14 -0.1598 0
1.07175e-14 -0.1598 0
8.42886e-16 -0.1598 0
3.96681e-17 -0.1598 0
2.08203e-18 -0.1598 0
1.27488e-19 -0.1598 0
2.3819e-21 -0.1598 0
2.31522e-32 -0.1598 0
-1.1137e-29 -0.1598 0
9.64519e-30 -0.1598 0
-6.00775e-22 -0.1598 0
-6.04198e-21 -0.1598 0
-6.16032e-20 -0.1598 0
-3.87092e-19 -0.1598 0
-1.64923e-18 -0.1598 0
-5.11353e-18 -0.1598 0
3.51832e-21 -0.1598 0
5.42283e-18 -0.1598 0
-3.88483e-18 -0.1598 0
-2.055e-17 -0.1598 0
-1.95004e-17 -0.1598 0
1.46367e-17 -0.1598 0
2.69533e-17 -0.1598 0
-5.00224e-17 -0.1598 0
-5.6179e-17 -0.1598 0
-2.47027e-17 -0.1598 0
-2.70237e-17 -0.1598 0
1.65077e-17 -0.1598 0
2.4512e-17 -0.1598 0
1.73979e-17 -0.1598 0
-8.70414e-18 -0.1598 0
-9.45297e-17 -0.1598 0
-1.02385e-16 -0.1598 0
-6.62845e-17 -0.1598 0
-9.09123e-17 -0.1598 0
-4.66596e-18 -0.1598 0
4.34487e-17 -0.1598 0
4.17407e-17 -0.1598 0
-0.000239169 -0.0001918 0
-0.000623018 -0.00104159 0
-0.00126731 -0.00149434 0
-0.0013432 -0.00383282 0
-0.0015201 -0.0047289 0
-0.00141533 -0.00665057 0
3.8454e-05 -0.00870437 0
0.000428793 -0.00715586 0
-1.86535e-05 -0.00742173 0
0.000555698 -0.00772231 0
0.00104049 -0.00556729 0
0.000530617 -0.00526768 0
0.000718328 -0.00791924 0
0.0025168 -0.011948 0
0.00316602 -0.0186078 0
0.0022193 -0.0239997 0
0.00156806 -0.0292993 0
0.0014103 -0.0337266 0
0.000360781 -0.0386558 0
-0.000685856 -0.0441067 0
-0.000775443 -0.0499584 0
-0.00075293 -0.0577486 0
9.03953e-05 -0.0662399 0
0.00180408 -0.0755469 0
0.0031213 -0.0858539 0
0.0039108 -0.0954077 0
0.00469432 -0.103894 0
0.00531148 -0.112559 0
0.00537171 -0.121357 0
0.00498349 -0.129103 0
0.0045775 -0.135418 0
0.00441679 -0.140943 0
0.00444376 -0.146196 0
0.00443576 -0.151 0
0.00420562 -0.154861 0
0.00370359 -0.157498 0
0.00300736 -0.15901 0
0.00225233 -0.159715 0
0.00156123 -0.159956 0
0.00100625 -0.159983 0
0.000605999 -0.159939 0
0.00034263 -0.159888 0
0.000182678 -0.159849 0
9.2216e-05 -0.159825 0
4.42348e-05 -0.159812 0
2.0229e-05 -0.159806 0
8.84516e-06 -0.159802 0
3.7076e-06 -0.159801 0
1.49334e-06 -0.1598 0
5.79187e-07 -0.1598 0
2.16724e-07 -0.1598 0
7.83751e-08 -0.1598 0
2.74357e-08 -0.1598 0
9.30998e-09 -0.1598 0
3.0666e-09 -0.1598 0
9.81591e-10 -0.1598 0
3.05772e-10 -0.1598 0
9.27276e-11 -0.1598 0
2.74268e-11 -0.1598 0
7.92486e-12 -0.1598 0
2.23517e-12 -0.1598 0
6.13124e-13 -0.1598 0
1.5352e-13 -0.1598 0
1.89774e-14 -0.1598 0
1.48616e-15 -0.1598 0
4.94628e-17 -0.1598 0
7.29626e-19 -0.1598 0
9.16233e-20 -0.1598 0
6.14159e-21 -0.1598 0
6.19452e-23 -0.1598 0
-6.0328e-30 -0.1598 0
-6.19452e-23 -0.1598 0
-5.24424e-21 -0.1598 0
-5.3738e-20 -0.1598 0
-3.63824e-19 -0.1598 0
-1.62922e-18 -0.1598 0
-4.90659e-18 -0.1598 0
-6.91809e-18 -0.1598 0
-1.39999e-18 -0.1598 0
1.49323e-18 -0.1598 0
-2.6721e-18 -0.1598 0
-1.61616e-17 -0.1598 0
-2.09346e-17 -0.1598 0
-7.75666e-18 -0.1598 0
-2.13818e-17 -0.1598 0
-8.20875e-17 -0.1598 0
-5.75531e-17 -0.1598 0
-9.01442e-19 -0.1598 0
2.62673e-18 -0.1598 0
5.30467e-18 -0.1598 0
4.79488e-18 -0.1598 0
1.96749e-17 -0.1598 0
-1.17539e-17 -0.1598 0
-5.2249e-17 -0.1598 0
-6.05912e-17 -0.1598 0
-4.68041e-17 -0.1598 0
1.71392e-17 -0.1598 0
-7.42656e-18 -0.1598 0
6.52116e-17 -0.1598 0
1.54611e-17 -0.1598 0
-0.000301036 -0.00103668 0
-0.000654646 -0.00326289 0
-0.00115515 -0.00353098 0
-0.000975746 -0.00638166 0
-0.00107367 -0.00634791 0
-0.00128554 -0.0081171 0
-0.000152773 -0.011146 0
0.000139904 -0.00903 0
-0.000217682 -0.0101827 0
0.000295358 -0.0115712 0
0.000980128 -0.00903644 0
0.000805817 -0.00930024 0
0.00128317 -0.0121289 0
0.00264765 -0.0162868 0
0.00292542 -0.020339 0
0.00228621 -0.0253935 0
0.0019826 -0.029967 0
0.00142995 -0.0352795 0
0.000473098 -0.0401595 0
-0.00043207 -0.0451865 0
-0.000795915 -0.0507672 0
-0.000513418 -0.0580345 0
0.000440597 -0.0665163 0
0.00177234 -0.0758052 0
0.00293042 -0.085964 0
0.00377811 -0.0958812 0
0.00446477 -0.104874 0
0.00495013 -0.113468 0
0.00508581 -0.121768 0
0.00491733 -0.129141 0
0.00467444 -0.135367 0
0.00454003 -0.140889 0
0.00451137 -0.146067 0
0.00444561 -0.150737 0
0.00419304 -0.154488 0
0.00369974 -0.157093 0
0.00302377 -0.158644 0
0.00228482 -0.159427 0
0.00159969 -0.159753 0
0.00104186 -0.159852 0
0.000634064 -0.159861 0
0.000362229 -0.159844 0
0.000195085 -0.159826 0
9.94427e-05 -0.159814 0
4.81489e-05 -0.159807 0
2.2216e-05 -0.159803 0
9.79654e-06 -0.159801 0
4.13942e-06 -0.159801 0
1.67992e-06 -0.1598 0
6.56216e-07 -0.1598 0
2.47201e-07 -0.1598 0
8.99624e-08 -0.1598 0
3.16793e-08 -0.1598 0
1.08101e-08 -0.1598 0
3.5794e-09 -0.1598 0
1.15148e-09 -0.1598 0
3.6023e-10 -0.1598 0
1.09803e-10 -0.1598 0
3.25959e-11 -0.1598 0
9.4233e-12 -0.1598 0
2.67608e-12 -0.1598 0
7.49463e-13 -0.1598 0
1.90305e-13 -0.1598 0
2.64188e-14 -0.1598 0
2.16662e-15 -0.1598 0
7.50375e-17 -0.1598 0
8.52004e-20 -0.1598 0
1.42535e-20 -0.1598 0
1.02151e-20 -0.1598 0
1.99412e-22 -0.1598 0
-1.69648e-30 -0.1598 0
-1.99412e-22 -0.1598 0
-1.18103e-20 -0.1598 0
-1.28062e-19 -0.1598 0
-7.28139e-19 -0.1598 0
-2.46589e-18 -0.1598 0
-5.6912e-18 -0.1598 0
-7.96845e-18 -0.1598 0
-6.13408e-18 -0.1598 0
-1.48353e-18 -0.1598 0
5.13527e-18 -0.1598 0
4.40888e-18 -0.1598 0
-1.95831e-17 -0.1598 0
-4.87202e-17 -0.1598 0
-7.64436e-17 -0.1598 0
-6.48149e-17 -0.1598 0
1.44266e-17 -0.1598 0
3.06061e-17 -0.1598 0
3.05666e-17 -0.1598 0
4.70839e-17 -0.1598 0
2.73062e-17 -0.1598 0
-4.41545e-17 -0.1598 0
-7.28333e-17 -0.1598 0
8.58024e-17 -0.1598 0
1.40763e-16 -0.1598 0
1.99457e-16 -0.1598 0
9.43348e-17 -0.1598 0
-3.05353e-16 -0.1598 0
-1.78109e-16 -0.1598 0
3.28816e-17 -0.1598 0
-0.000629059 -0.00122228 0
-0.000837053 -0.00344778 0
-0.00110565 -0.00246454 0
-0.000940985 -0.00721463 0
-0.0010474 -0.00633654 0
-0.000890617 -0.00677382 0
-0.000527249 -0.00983169 0
-0.000286648 -0.00795198 0
0.000293989 -0.0103353 0
0.000435549 -0.0129591 0
0.000581025 -0.010529 0
0.00149047 -0.0114805 0
0.00234037 -0.0159181 0
0.00350557 -0.0185388 0
0.00368806 -0.0224576 0
0.00348492 -0.0262162 0
0.00326069 -0.032159 0
0.00211951 -0.0366778 0
0.000816602 -0.0400193 0
-0.000647138 -0.0447357 0
-0.00149928 -0.0504804 0
-0.00109351 -0.0581156 0
6.57755e-05 -0.0669397 0
0.00148075 -0.0762826 0
0.00284207 -0.0864272 0
0.0038419 -0.0965795 0
0.00441716 -0.105856 0
0.0047129 -0.114403 0
0.00482297 -0.122353 0
0.00477937 -0.129378 0
0.00466636 -0.135412 0
0.00459004 -0.140834 0
0.00456495 -0.145906 0
0.00448886 -0.150457 0
0.00423193 -0.154121 0
0.00373991 -0.156705 0
0.00306483 -0.158296 0
0.0023231 -0.159154 0
0.00163179 -0.15956 0
0.00106628 -0.159728 0
0.000651107 -0.159787 0
0.000373232 -0.159803 0
0.000201704 -0.159804 0
0.000103173 -0.159803 0
5.01276e-05 -0.159802 0
2.32079e-05 -0.159801 0
1.02681e-05 -0.1598 0
4.35274e-06 -0.1598 0
1.77202e-06 -0.1598 0
6.94269e-07 -0.1598 0
2.62286e-07 -0.1598 0
9.57129e-08 -0.1598 0
3.37918e-08 -0.1598 0
1.15593e-08 -0.1598 0
3.8363e-09 -0.1598 0
1.23679e-09 -0.1598 0
3.87816e-10 -0.1598 0
1.18355e-10 -0.1598 0
3.52096e-11 -0.1598 0
1.0249e-11 -0.1598 0
2.90758e-12 -0.1598 0
7.9687e-13 -0.1598 0
2.12254e-13 -0.1598 0
3.06366e-14 -0.1598 0
2.61846e-15 -0.1598 0
9.85004e-17 -0.1598 0
-7.10396e-19 -0.1598 0
-2.20599e-19 -0.1598 0
-2.94155e-21 -0.1598 0
-2.36013e-32 -0.1598 0
-8.04712e-30 -0.1598 0
7.0307e-30 -0.1598 0
-7.01835e-30 -0.1598 0
2.92739e-21 -0.1598 0
1.55783e-19 -0.1598 0
7.44022e-19 -0.1598 0
3.06265e-18 -0.1598 0
-6.585e-19 -0.1598 0
-9.41985e-18 -0.1598 0
-1.4036e-17 -0.1598 0
1.8443e-18 -0.1598 0
3.38048e-17 -0.1598 0
1.04229e-17 -0.1598 0
-5.75791e-17 -0.1598 0
-1.00702e-16 -0.1598 0
-4.48868e-17 -0.1598 0
1.8989e-17 -0.1598 0
1.82897e-17 -0.1598 0
6.42643e-17 -0.1598 0
6.20448e-17 -0.1598 0
-1.75672e-17 -0.1598 0
-1.45736e-16 -0.1598 0
-6.84776e-17 -0.1598 0
1.3802e-16 -0.1598 0
1.36659e-16 -0.1598 0
7.189e-17 -0.1598 0
-1.14646e-16 -0.1598 0
-1.69827e-16 -0.1598 0
-7.53709e-17 -0.1598 0
1.87446e-17 -0.1598 0
-0.000633938 -0.00317722 0
-0.000742685 -0.00674802 0
-0.000674513 -0.00845621 0
-0.00170111 -0.0131031 0
-0.00194916 -0.0123911 0
-0.000790847 -0.0131803 0
-0.0010584 -0.015413 0
-0.000524399 -0.0142243 0
0.00146705 -0.0171423 0
0.00161386 -0.0200375 0
0.000546026 -0.0189828 0
0.00147445 -0.0195897 0
0.00288786 -0.0230564 0
0.00353319 -0.024367 0
0.00384993 -0.026673 0
0.00423816 -0.0302435 0
0.0040882 -0.0346568 0
0.00311076 -0.0365158 0
0.00146408 -0.0391776 0
-0.00086938 -0.0433146 0
-0.00208537 -0.0493051 0
-0.00171839 -0.0580113 0
-0.000634834 -0.067621 0
0.000920636 -0.0772883 0
0.00267241 -0.0874576 0
0.00394225 -0.0975311 0
0.0044958 -0.106771 0
0.00464569 -0.115235 0
0.00466682 -0.122959 0
0.0046216 -0.129708 0
0.00455329 -0.135534 0
0.00453833 -0.14082 0
0.00457647 -0.145773 0
0.00455018 -0.150206 0
0.00431748 -0.153785 0
0.00382359 -0.156343 0
0.00313027 -0.157966 0
0.00236596 -0.158892 0
0.00165577 -0.159374 0
0.00107775 -0.159607 0
0.000655691 -0.159714 0
0.000374632 -0.159762 0
0.000201898 -0.159783 0
0.000103037 -0.159793 0
4.99699e-05 -0.159797 0
2.3102e-05 -0.159799 0
1.02102e-05 -0.159799 0
4.32478e-06 -0.1598 0
1.75966e-06 -0.1598 0
6.89173e-07 -0.1598 0
2.60304e-07 -0.1598 0
9.49805e-08 -0.1598 0
3.3533e-08 -0.1598 0
1.14717e-08 -0.1598 0
3.80768e-09 -0.1598 0
1.22783e-09 -0.1598 0
3.84992e-10 -0.1598 0
1.17594e-10 -0.1598 0
3.49787e-11 -0.1598 0
1.01686e-11 -0.1598 0
2.89174e-12 -0.1598 0
7.98186e-13 -0.1598 0
2.10315e-13 -0.1598 0
3.04784e-14 -0.1598 0
2.61368e-15 -0.1598 0
9.63173e-17 -0.1598 0
-1.71466e-18 -0.1598 0
-4.26353e-19 -0.1598 0
-1.75067e-20 -0.1598 0
-1.99412e-22 -0.1598 0
-4.39536e-30 -0.1598 0
1.99412e-22 -0.1598 0
1.24111e-20 -0.1598 0
1.35188e-19 -0.1598 0
8.65703e-19 -0.1598 0
3.18941e-18 -0.1598 0
8.00003e-18 -0.1598 0
8.33935e-18 -0.1598 0
-1.45503e-18 -0.1598 0
-2.72215e-17 -0.1598 0
-1.53398e-17 -0.1598 0
4.53388e-17 -0.1598 0
5.26682e-17 -0.1598 0
-2.82339e-17 -0.1598 0
-1.16035e-16 -0.1598 0
-1.06922e-16 -0.1598 0
-4.05682e-18 -0.1598 0
6.65697e-17 -0.1598 0
2.62112e-17 -0.1598 0
-8.2605e-17 -0.1598 0
-9.40098e-17 -0.1598 0
1.10201e-17 -0.1598 0
1.61469e-17 -0.1598 0
-1.08005e-16 -0.1598 0
-5.30586e-17 -0.1598 0
-1.77944e-16 -0.1598 0
-1.54857e-16 -0.1598 0
4.63245e-16 -0.1598 0
3.42456e-16 -0.1598 0
-3.14722e-16 -0.1598 0
-0.00050794 -0.00348256 0
-0.000908382 -0.00659665 0
-0.00103663 -0.00895038 0
-0.00179632 -0.0111875 0
-0.00110229 -0.0133793 0
-0.000377318 -0.016352 0
-0.00163948 -0.0175269 0
-0.00066991 -0.0176805 0
0.00163069 -0.020052 0
0.00176668 -0.0212207 0
0.00116231 -0.0221715 0
0.00193413 -0.024688 0
0.00278901 -0.0265204 0
0.00261049 -0.0267993 0
0.00303669 -0.0284386 0
0.00420944 -0.0324768 0
0.0046363 -0.0356413 0
0.00359361 -0.0370629 0
0.000935577 -0.0386909 0
-0.00161499 -0.041647 0
-0.00230878 -0.0481702 0
-0.00187109 -0.0579291 0
-0.00101692 -0.0683521 0
0.000534029 -0.0786413 0
0.00244696 -0.0889055 0
0.00385758 -0.0986439 0
0.00450891 -0.107595 0
0.00469731 -0.115909 0
0.00465975 -0.123461 0
0.00450098 -0.130003 0
0.00436831 -0.135677 0
0.00439393 -0.140867 0
0.00454232 -0.145723 0
0.00462125 -0.150038 0
0.00443993 -0.153513 0
0.00394113 -0.156021 0
0.00321181 -0.157657 0
0.0024073 -0.158638 0
0.00166773 -0.159189 0
0.00107414 -0.159486 0
0.000646833 -0.159642 0
0.00036606 -0.159722 0
0.000195573 -0.159762 0
9.90357e-05 -0.159782 0
4.76993e-05 -0.159792 0
2.19182e-05 -0.159796 0
9.63515e-06 -0.159798 0
4.06194e-06 -0.159799 0
1.64584e-06 -0.1598 0
6.42222e-07 -0.1598 0
2.4178e-07 -0.1598 0
8.79658e-08 -0.1598 0
3.09761e-08 -0.1598 0
1.05724e-08 -0.1598 0
3.50197e-09 -0.1598 0
1.12705e-09 -0.1598 0
3.52868e-10 -0.1598 0
1.07582e-10 -0.1598 0
3.19754e-11 -0.1598 0
9.29518e-12 -0.1598 0
2.62085e-12 -0.1598 0
7.30665e-13 -0.1598 0