<?xml version='1.0' encoding='UTF-8'?>
<VTKFile byte_order='LittleEndian' version='0.1' type = 'UnstructuredGrid'>
<UnstructuredGrid>
<FieldData>
<DataArray type='Float64' Name='Time' NumberOfComponents='1' NumberOfTuples='1' format='ascii'>
1.121
</DataArray>
</FieldData>
<Piece NumberOfCells='808' NumberOfPoints='808'>
<Points>
<DataArray NumberOfComponents='3' type='Float64' Name='position' format='ascii'>
0 0 0
0 0.025 0
0 0.05 0
0 0.075 0
0 0.1 0
0 0.125 0
0 0.15 0
0 0.175 0
0.025 0 0
0.05 0 0
0.075 0 0
0.1 0 0
0.125 0 0
0.15 0 0
0.175 0 0
0.2 0 0
0.225 0 0
0.25 0 0
0.275 0 0
0.3 0 0
0.325 0 0
0.35 0 0
0.378007 -0.0180148 0
0.403102 -0.0278805 0
0.428197 -0.0360035 0
0.453142 -0.0429838 0
0.478064 -0.0490507 0
0.502882 -0.0546207 0
0.52775 -0.0598353 0
0.552599 -0.0647778 0
0.577367 -0.0695244 0
0.602226 -0.0740481 0
0.627063 -0.0784711 0
0.651845 -0.0827511 0
0.676688 -0.0868901 0
0.70156 -0.0909904 0
0.726458 -0.0949746 0
0.751451 -0.0987554 0
0.776522 -0.102385 0
0.801596 -0.105854 0
0.826651 -0.109037 0
0.851696 -0.111867 0
0.876721 -0.114378 0
0.901701 -0.116601 0
0.926629 -0.118515 0
0.951519 -0.120107 0
0.976389 -0.121414 0
1.00125 -0.122497 0
1.02612 -0.123394 0
1.05098 -0.124113 0
1.07585 -0.124651 0
1.10071 -0.125017 0
1.12558 -0.125237 0
1.15045 -0.125349 0
1.17533 -0.125392 0
1.20024 -0.125397 0
1.22516 -0.125385 0
1.2501 -0.12537 0
1.27506 -0.125356 0
1.30004 -0.125345 0
1.32502 -0.125338 0
1.35001 -0.125333 0
1.37501 -0.125331 0
1.4 -0.125329 0
1.425 -0.125329 0
1.45 -0.125328 0
1.475 -0.125328 0
1.5 -0.125328 0
1.525 -0.125328 0
1.55 -0.125328 0
1.575 -0.125328 0
1.6 -0.125328 0
1.625 -0.125328 0
1.65 -0.125328 0
1.675 -0.125328 0
1.7 -0.125328 0
1.725 -0.125328 0
1.75 -0.125328 0
1.775 -0.125328 0
1.8 -0.125328 0
1.825 -0.125328 0
1.85 -0.125328 0
1.875 -0.125328 0
1.9 -0.125328 0
1.925 -0.125328 0
1.95 -0.125328 0
1.975 -0.125328 0
2 -0.125328 0
2.025 -0.125328 0
2.05 -0.125328 0
2.075 -0.125328 0
2.1 -0.125328 0
2.125 -0.125328 0
2.15 -0.125328 0
2.175 -0.125328 0
2.2 -0.125328 0
2.225 -0.125328 0
2.25 -0.125328 0
2.275 -0.125328 0
2.3 -0.125328 0
2.325 -0.125328 0
2.35 -0.125328 0
2.375 -0.125328 0
2.4 -0.125328 0
2.425 -0.125328 0
2.45 -0.125328 0
2.475 -0.125328 0
2.5 -0.125328 0
0.0248767 0.0245306 0
0.0498043 0.0242702 0
0.0747431 0.0240117 0
0.0996825 0.0238021 0
0.124659 0.0235029 0
0.149647 0.0232291 0
0.174615 0.0228901 0
0.199668 0.0224844 0
0.224706 0.0221634 0
0.249723 0.0215875 0
0.274854 0.020745 0
0.300122 0.0195409 0
0.325631 0.0172923 0
0.35229 0.0126478 0
0.37836 0.00388968 0
0.403236 -0.00430125 0
0.428264 -0.0117473 0
0.453193 -0.0183877 0
0.478089 -0.024345 0
0.502935 -0.0298504 0
0.527787 -0.0349954 0
0.552617 -0.0398772 0
0.577405 -0.0445825 0
0.602224 -0.0491136 0
0.627045 -0.0535271 0
0.651861 -0.0578103 0
0.676714 -0.0619612 0
0.701589 -0.0660354 0
0.726493 -0.0700066 0
0.75147 -0.0738171 0
0.776515 -0.0774618 0
0.801579 -0.080906 0
0.826638 -0.0840598 0
0.851687 -0.0868747 0
0.87671 -0.0893719 0
0.901689 -0.0915732 0
0.92662 -0.0934681 0
0.951513 -0.0950529 0
0.976387 -0.096361 0
1.00125 -0.0974437 0
1.02612 -0.0983367 0
1.05099 -0.09905 0
1.07585 -0.0995847 0
1.10071 -0.0999514 0
1.12558 -0.100177 0
1.15045 -0.100298 0
1.17534 -0.100351 0
1.20024 -0.100366 0
1.22517 -0.100363 0
1.25011 -0.100355 0
1.27507 -0.100346 0
1.30004 -0.100339 0
1.32502 -0.100335 0
1.35001 -0.100332 0
1.37501 -0.10033 0
1.4 -0.100329 0
1.425 -0.100328 0
1.45 -0.100328 0
1.475 -0.100328 0
1.5 -0.100328 0
1.525 -0.100328 0
1.55 -0.100328 0
1.575 -0.100328 0
1.6 -0.100328 0
1.625 -0.100328 0
1.65 -0.100328 0
1.675 -0.100328 0
1.7 -0.100328 0
1.725 -0.100328 0
1.75 -0.100328 0
1.775 -0.100328 0
1.8 -0.100328 0
1.825 -0.100328 0
1.85 -0.100328 0
1.875 -0.100328 0
1.9 -0.100328 0
1.925 -0.100328 0
1.95 -0.100328 0
1.975 -0.100328 0
2 -0.100328 0
2.025 -0.100328 0
2.05 -0.100328 0
2.075 -0.100328 0
2.1 -0.100328 0
2.125 -0.100328 0
2.15 -0.100328 0
2.175 -0.100328 0
2.2 -0.100328 0
2.225 -0.100328 0
2.25 -0.100328 0
2.275 -0.100328 0
2.3 -0.100328 0
2.325 -0.100328 0
2.35 -0.100328 0
2.375 -0.100328 0
2.4 -0.100328 0
2.425 -0.100328 0
2.45 -0.100328 0
2.475 -0.100328 0
2.5 -0.100328 0
0.0248024 0.049277 0
0.0496983 0.0488403 0
0.0746241 0.0484089 0
0.099556 0.0480781 0
0.124523 0.0475916 0
0.149515 0.0471633 0
0.174471 0.046664 0
0.1995 0.0459502 0
0.22457 0.0452834 0
0.249695 0.0442502 0
0.274991 0.0428461 0
0.300483 0.0409297 0
0.326221 0.0378194 0
0.352412 0.0330106 0
0.378231 0.0262459 0
0.403327 0.0192731 0
0.428326 0.012469 0
0.453241 0.00617267 0
0.478112 0.000441065 0
0.502942 -0.00496257 0
0.527776 -0.0100958 0
0.552605 -0.0149619 0
0.577422 -0.0196412 0
0.602249 -0.024167 0
0.627073 -0.0285694 0
0.6519 -0.0328474 0
0.676749 -0.0369943 0
0.701615 -0.0410427 0
0.726514 -0.0450026 0
0.75148 -0.0488363 0
0.776508 -0.0524981 0
0.801565 -0.0559301 0
0.826626 -0.0590637 0
0.851679 -0.061867 0
0.876704 -0.0643546 0
0.901684 -0.0665428 0
0.926615 -0.0684272 0
0.951509 -0.0700093 0
0.976384 -0.0713191 0
1.00125 -0.0724015 0
1.02612 -0.0732894 0
1.05099 -0.0739955 0
1.07585 -0.0745248 0
1.10072 -0.0748909 0
1.12559 -0.0751207 0
1.15046 -0.0752497 0
1.17534 -0.0753126 0
1.20025 -0.0753376 0
1.22517 -0.0753435 0
1.25011 -0.0753418 0
1.27507 -0.0753379 0
1.30004 -0.0753344 0
1.32502 -0.0753318 0
1.35001 -0.0753301 0
1.37501 -0.0753291 0
1.4 -0.0753286 0
1.425 -0.0753283 0
1.45 -0.0753281 0
1.475 -0.0753281 0
1.5 -0.075328 0
1.525 -0.075328 0
1.55 -0.075328 0
1.575 -0.075328 0
1.6 -0.075328 0
1.625 -0.075328 0
1.65 -0.075328 0
1.675 -0.075328 0
1.7 -0.075328 0
1.725 -0.075328 0
1.75 -0.075328 0
1.775 -0.075328 0
1.8 -0.075328 0
1.825 -0.075328 0
1.85 -0.075328 0
1.875 -0.075328 0
1.9 -0.075328 0
1.925 -0.075328 0
1.95 -0.075328 0
1.975 -0.075328 0
2 -0.075328 0
2.025 -0.075328 0
2.05 -0.075328 0
2.075 -0.075328 0
2.1 -0.075328 0
2.125 -0.075328 0
2.15 -0.075328 0
2.175 -0.075328 0
2.2 -0.075328 0
2.225 -0.075328 0
2.25 -0.075328 0
2.275 -0.075328 0
2.3 -0.075328 0
2.325 -0.075328 0
2.35 -0.075328 0
2.375 -0.075328 0
2.4 -0.075328 0
2.425 -0.075328 0
2.45 -0.075328 0
2.475 -0.075328 0
2.5 -0.075328 0
0.0247538 0.0740095 0
0.0496197 0.0733813 0
0.0745361 0.0726999 0
0.0994785 0.072194 0
0.124431 0.0716013 0
0.149415 0.071006 0
0.174424 0.0703507 0
0.199484 0.0693793 0
0.224605 0.0683543 0
0.249839 0.066906 0
0.275207 0.0650656 0
0.300765 0.0627441 0
0.326521 0.0592794 0
0.35237 0.0546686 0
0.378012 0.0489834 0
0.403257 0.0428489 0
0.428287 0.0366611 0
0.453225 0.0308375 0
0.478102 0.0252763 0
0.502935 0.0199238 0
0.527756 0.0148122 0
0.552574 0.00994255 0
0.577416 0.00526532 0
0.602276 0.000755805 0
0.627126 -0.003614 0
0.651962 -0.00787034 0
0.67679 -0.0120079 0
0.70163 -0.0160439 0
0.726518 -0.0200025 0
0.751479 -0.0238525 0
0.776501 -0.0275248 0
0.801554 -0.0309494 0
0.826617 -0.0340701 0
0.851674 -0.0368646 0
0.876702 -0.0393442 0
0.901683 -0.0415222 0
0.926613 -0.0433987 0
0.951506 -0.0449788 0
0.97638 -0.0462898 0
1.00125 -0.0473709 0
1.02612 -0.0482526 0
1.05099 -0.0489496 0
1.07586 -0.0494714 0
1.10073 -0.0498347 0
1.12559 -0.0500672 0
1.15046 -0.0502032 0
1.17535 -0.0502754 0
1.20025 -0.0503098 0
1.22517 -0.0503241 0
1.25011 -0.050329 0
1.27507 -0.0503299 0
1.30004 -0.0503296 0
1.32502 -0.0503291 0
1.35001 -0.0503286 0
1.37501 -0.0503283 0
1.4 -0.0503282 0
1.425 -0.0503281 0
1.45 -0.050328 0
1.475 -0.050328 0
1.5 -0.050328 0
1.525 -0.050328 0
1.55 -0.050328 0
1.575 -0.050328 0
1.6 -0.050328 0
1.625 -0.050328 0
1.65 -0.050328 0
1.675 -0.050328 0
1.7 -0.050328 0
1.725 -0.050328 0
1.75 -0.050328 0
1.775 -0.050328 0
1.8 -0.050328 0
1.825 -0.050328 0
1.85 -0.050328 0
1.875 -0.050328 0
1.9 -0.050328 0
1.925 -0.050328 0
1.95 -0.050328 0
1.975 -0.050328 0
2 -0.050328 0
2.025 -0.050328 0
2.05 -0.050328 0
2.075 -0.050328 0
2.1 -0.050328 0
2.125 -0.050328 0
2.15 -0.050328 0
2.175 -0.050328 0
2.2 -0.050328 0
2.225 -0.050328 0
2.25 -0.050328 0
2.275 -0.050328 0
2.3 -0.050328 0
2.325 -0.050328 0
2.35 -0.050328 0
2.375 -0.050328 0
2.4 -0.050328 0
2.425 -0.050328 0
2.45 -0.050328 0
2.475 -0.050328 0
2.5 -0.050328 0
0.0247422 0.0988753 0
0.0495911 0.0981102 0
0.074485 0.0973081 0
0.0994353 0.0966618 0
0.124413 0.095867 0
0.149384 0.0950424 0
0.174449 0.0941746 0
0.199563 0.0930283 0
0.224729 0.0917593 0
0.250023 0.0900613 0
0.275414 0.0879227 0
0.300919 0.0852762 0
0.326599 0.0817402 0
0.352264 0.0772793 0
0.377778 0.0722185 0
0.40305 0.0666163 0
0.428121 0.0609677 0
0.453112 0.0553902 0
0.47804 0.0499799 0
0.502934 0.0447579 0
0.527767 0.0397019 0
0.552568 0.0348503 0
0.577409 0.0301725 0
0.602286 0.0256739 0
0.627166 0.0213391 0
0.652018 0.0171129 0
0.676831 0.0129859 0
0.70164 0.00894616 0
0.726508 0.00497611 0
0.751465 0.00111556 0
0.77649 -0.00255783 0
0.801548 -0.00597473 0
0.826615 -0.00908685 0
0.851673 -0.011875 0
0.876703 -0.0143471 0
0.901684 -0.0165154 0
0.926614 -0.0183835 0
0.951504 -0.0199601 0
0.976376 -0.0212708 0
1.00125 -0.0223502 0
1.02612 -0.0232256 0
1.05099 -0.0239128 0
1.07586 -0.0244254 0
1.10073 -0.0247837 0
1.1256 -0.0250169 0
1.15047 -0.0251585 0
1.17535 -0.025239 0
1.20025 -0.0252824 0
1.22517 -0.0253049 0
1.25011 -0.0253163 0
1.27507 -0.025322 0
1.30004 -0.0253249 0
1.32502 -0.0253264 0
1.35001 -0.0253272 0
1.37501 -0.0253276 0
1.4 -0.0253278 0
1.425 -0.0253279 0
1.45 -0.025328 0
1.475 -0.025328 0
1.5 -0.025328 0
1.525 -0.025328 0
1.55 -0.025328 0
1.575 -0.025328 0
1.6 -0.025328 0
1.625 -0.025328 0
1.65 -0.025328 0
1.675 -0.025328 0
1.7 -0.025328 0
1.725 -0.025328 0
1.75 -0.025328 0
1.775 -0.025328 0
1.8 -0.025328 0
1.825 -0.025328 0
1.85 -0.025328 0
1.875 -0.025328 0
1.9 -0.025328 0
1.925 -0.025328 0
1.95 -0.025328 0
1.975 -0.025328 0
2 -0.025328 0
2.025 -0.025328 0
2.05 -0.025328 0
2.075 -0.025328 0
2.1 -0.025328 0
2.125 -0.025328 0
2.15 -0.025328 0
2.175 -0.025328 0
2.2 -0.025328 0
2.225 -0.025328 0
2.25 -0.025328 0
2.275 -0.025328 0
2.3 -0.025328 0
2.325 -0.025328 0
2.35 -0.025328 0
2.375 -0.025328 0
2.4 -0.025328 0
2.425 -0.025328 0
2.45 -0.025328 0
2.475 -0.025328 0
2.5 -0.025328 0
0.0247549 0.123779 0
0.0496094 0.122877 0
0.0744921 0.122009 0
0.0994632 0.121168 0
0.124451 0.120246 0
0.149456 0.119291 0
0.174534 0.1182 0
0.199627 0.116931 0
0.224839 0.115465 0
0.250151 0.113587 0
0.275535 0.111291 0
0.301019 0.108411 0
0.326581 0.104844 0
0.352127 0.100588 0
0.377575 0.0958124 0
0.402847 0.0906202 0
0.427935 0.0853102 0
0.452943 0.0799513 0
0.477948 0.0747062 0
0.502914 0.0695456 0
0.527751 0.0645759 0
0.55255 0.0597981 0
0.5774 0.0551284 0
0.602289 0.0506205 0
0.627191 0.0462959 0
0.652059 0.0420954 0
0.676863 0.0379823 0
0.701647 0.0339303 0
0.726493 0.0299396 0
0.751442 0.0260694 0
0.776473 0.022398 0
0.801543 0.018988 0
0.826619 0.0158827 0
0.85168 0.0131005 0
0.876708 0.0106357 0
0.901688 0.00847788 0
0.926617 0.00662041 0
0.951505 0.00505029 0
0.976373 0.00374141 0
1.00124 0.0026634 0
1.02611 0.0017931 0
1.05099 0.00111493 0
1.07587 0.000612313 0
1.10074 0.000260938 0
1.1256 2.92195e-05 0
1.15047 -0.000116002 0
1.17536 -0.000203634 0
1.20025 -0.000255374 0
1.22517 -0.000285708 0
1.25011 -0.000303525 0
1.27507 -0.000314015 0
1.30004 -0.000320166 0
1.32502 -0.000323722 0
1.35001 -0.000325732 0
1.37501 -0.000326836 0
1.4 -0.000327422 0
1.425 -0.000327722 0
1.45 -0.000327871 0
1.475 -0.000327942 0
1.5 -0.000327975 0
1.525 -0.000327989 0
1.55 -0.000327996 0
1.575 -0.000327998 0
1.6 -0.000327999 0
1.625 -0.000328 0
1.65 -0.000328 0
1.675 -0.000328 0
1.7 -0.000328 0
1.725 -0.000328 0
1.75 -0.000328 0
1.775 -0.000328 0
1.8 -0.000328 0
1.825 -0.000328 0
1.85 -0.000328 0
1.875 -0.000328 0
1.9 -0.000328 0
1.925 -0.000328 0
1.95 -0.000328 0
1.975 -0.000328 0
2 -0.000328 0
2.025 -0.000328 0
2.05 -0.000328 0
2.075 -0.000328 0
2.1 -0.000328 0
2.125 -0.000328 0
2.15 -0.000328 0
2.175 -0.000328 0
2.2 -0.000328 0
2.225 -0.000328 0
2.25 -0.000328 0
2.275 -0.000328 0
2.3 -0.000328 0
2.325 -0.000328 0
2.35 -0.000328 0
2.375 -0.000328 0
2.4 -0.000328 0
2.425 -0.000328 0
2.45 -0.000328 0
2.475 -0.000328 0
2.5 -0.000328 0
0.0247868 0.148613 0
0.0496469 0.147573 0
0.0745213 0.146625 0
0.0994668 0.145674 0
0.124434 0.144798 0
0.149532 0.143761 0
0.174601 0.142555 0
0.199672 0.141208 0
0.224958 0.139533 0
0.250256 0.137511 0
0.27562 0.135076 0
0.301128 0.132056 0
0.326569 0.128509 0
0.35199 0.124425 0
0.377441 0.119794 0
0.402737 0.114884 0
0.427802 0.109821 0
0.452817 0.104649 0
0.4779 0.0994402 0
0.502886 0.0943437 0
0.527696 0.0894966 0
0.552484 0.0847744 0
0.577354 0.0800986 0
0.60229 0.0755674 0
0.627228 0.0712353 0
0.652096 0.0670619 0
0.676881 0.0629698 0
0.701645 0.0589036 0
0.726472 0.0548874 0
0.75141 0.0510024 0
0.77645 0.047327 0
0.801539 0.043921 0
0.826628 0.0408253 0
0.85169 0.0380533 0
0.876717 0.0355988 0
0.901696 0.0334542 0
0.926624 0.0316117 0
0.951507 0.0300528 0
0.97637 0.0287484 0
1.00123 0.0276713 0
1.02611 0.026804 0
1.05099 0.0261334 0
1.07587 0.0256409 0
1.10074 0.0252981 0
1.12561 0.0250703 0
1.15048 0.0249236 0
1.17536 0.0248304 0
1.20025 0.0247713 0
1.22517 0.0247336 0
1.25011 0.0247095 0
1.27507 0.0246942 0
1.30004 0.0246848 0
1.32502 0.0246791 0
1.35001 0.0246758 0
1.37501 0.024674 0
1.4 0.024673 0
1.425 0.0246725 0
1.45 0.0246722 0
1.475 0.0246721 0
1.5 0.024672 0
1.525 0.024672 0
1.55 0.024672 0
1.575 0.024672 0
1.6 0.024672 0
1.625 0.024672 0
1.65 0.024672 0
1.675 0.024672 0
1.7 0.024672 0
1.725 0.024672 0
1.75 0.024672 0
1.775 0.024672 0
1.8 0.024672 0
1.825 0.024672 0
1.85 0.024672 0
1.875 0.024672 0
1.9 0.024672 0
1.925 0.024672 0
1.95 0.024672 0
1.975 0.024672 0
2 0.024672 0
2.025 0.024672 0
2.05 0.024672 0
2.075 0.024672 0
2.1 0.024672 0
2.125 0.024672 0
2.15 0.024672 0
2.175 0.024672 0
2.2 0.024672 0
2.225 0.024672 0
2.25 0.024672 0
2.275 0.024672 0
2.3 0.024672 0
2.325 0.024672 0
2.35 0.024672 0
2.375 0.024672 0
2.4 0.024672 0
2.425 0.024672 0
2.45 0.024672 0
2.475 0.024672 0
2.5 0.024672 0
0.0247861 0.173618 0
0.0496578 0.172536 0
0.074559 0.171569 0
0.0995337 0.170521 0
0.124449 0.169591 0
0.149542 0.168438 0
0.174559 0.167265 0
0.199727 0.16587 0
0.225088 0.164026 0
0.250227 0.162017 0
0.275619 0.159448 0
0.301252 0.15628 0
0.326571 0.152784 0
0.351861 0.148717 0
0.377391 0.144066 0
0.402719 0.139295 0
0.427688 0.134422 0
0.45268 0.129297 0
0.477826 0.124101 0
0.502879 0.119175 0
0.527696 0.114446 0
0.552411 0.109722 0
0.577264 0.105014 0
0.602288 0.100444 0
0.627289 0.0961172 0
0.65214 0.0919988 0
0.67689 0.0879376 0
0.701633 0.0838547 0
0.72644 0.0798084 0
0.751369 0.0758973 0
0.776424 0.0722047 0
0.801538 0.0688005 0
0.826641 0.0657231 0
0.851704 0.062972 0
0.87673 0.0605357 0
0.90171 0.0584119 0
0.926636 0.0565934 0
0.951512 0.0550535 0
0.976367 0.0537572 0
1.00123 0.0526804 0
1.0261 0.0518137 0
1.05099 0.0511488 0
1.07587 0.0506663 0
1.10075 0.0503333 0
1.12561 0.0501112 0
1.15048 0.0499645 0
1.17535 0.0498669 0
1.20025 0.0498006 0
1.22517 0.0497553 0
1.25011 0.0497244 0
1.27507 0.0497038 0
1.30004 0.0496906 0
1.32502 0.0496825 0
1.35001 0.0496777 0
1.37501 0.0496749 0
1.4 0.0496735 0
1.425 0.0496727 0
1.45 0.0496723 0
1.475 0.0496722 0
1.5 0.0496721 0
1.525 0.049672 0
1.55 0.049672 0
1.575 0.049672 0
1.6 0.049672 0
1.625 0.049672 0
1.65 0.049672 0
1.675 0.049672 0
1.7 0.049672 0
1.725 0.049672 0
1.75 0.049672 0
1.775 0.049672 0
1.8 0.049672 0
1.825 0.049672 0
1.85 0.049672 0
1.875 0.049672 0
1.9 0.049672 0
1.925 0.049672 0
1.95 0.049672 0
1.975 0.049672 0
2 0.049672 0
2.025 0.049672 0
2.05 0.049672 0
2.075 0.049672 0
2.1 0.049672 0
2.125 0.049672 0
2.15 0.049672 0
2.175 0.049672 0
2.2 0.049672 0
2.225 0.049672 0
2.25 0.049672 0
2.275 0.049672 0
2.3 0.049672 0
2.325 0.049672 0
2.35 0.049672 0
2.375 0.049672 0
2.4 0.049672 0
2.425 0.049672 0
2.45 0.049672 0
2.475 0.049672 0
2.5 0.049672 0
</DataArray>
</Points>
<PointData>
<DataArray NumberOfComponents='1' type='Int32' Name='Particle Type' format='ascii'>
0
0
0
0
0
0
0
0
0
0
0
0
0
0
0
0
0
0
0
0
0
0
1
1
1
1
1
1
1
1
1
1
1
1
1
1
1
1
1
1
1
1
1
1
1
1
1
1
1
1
1
1
1
1
1
1
1
1
1
1
1
1
1
1
1
1
1
1
1
1
1
1
1
1
1
1
1
1
1
1
1
1
1
1
1
1
1
1
1
1
1
1
1
1
1
1
1
1
1
1
1
1
1
1
1
1
1
1
1
1
1
1
1
1
1
1
1
1
1
1
1
1
1
1
1
1
1
1
1
1
1
1
1
1
1
1
1
1
1
1
1
1
1
1
1
1
1
1
1
1
1
1
1
1
1
1
1
1
1
1
1
1
1
1
1
1
1
1
1
1
1
1
1
1
1
1
1
1
1
1
1
1
1
1
1
1
1
1
1
1
1
1
1
1
1
1
1
1
1
1
1
1
1
1
1
1
1
1
1
1
1
1
1
1
1
1
1
1
1
1
1
1
1
1
1
1
1
1
1
1
1
1
1
1
1
1
1
1
1
1
1
1
1
1
1
1
1
1
1
1
1
1
1
1
1
1
1
1
1
1
1
1
1
1
1
1
1
1
1
1
1
1
1
1
1
1
1
1
1
1
1
1
1
1
1
1
1
1
1
1
1
1
1
1
1
1
1
1
1
1
1
1
1
1
1
1
1
1
1
1
1
1
1
1
1
1
1
1
1
1
1
1
1
1
1
1
1
1
1
1
1
1
1
1
1
1
1
1
1
1
1
1
1
1
1
1
1
1
1
1
1
1
1
1
1
1
1
1
1
1
1
1
1
1
1
1
1
1
1
1
1
1
1
1
1
1
1
1
1
1
1
1
1
1
1
1
1
1
1
1
1
1
1
1
1
1
1
1
1
1
1
1
1
1
1
1
1
1
1
1
1
1
1
1
1
1
1
1
1
1
1
1
1
1
1
1
1
1
1
1
1
1
1
1
1
1
1
1
1
1
1
1
1
1
1
1
1
1
1
1
1
1
1
1
1
1
1
1
1
1
1
1
1
1
1
1
1
1
1
1
1
1
1
1
1
1
1
1
1
1
1
1
1
1
1
1
1
1
1
1
1
1
1
1
1
1
1
1
1
1
1
1
1
1
1
1
1
1
1
1
1
1
1
1
1
1
1
1
1
1
1
1
1
1
1
1
1
1
1
1
1
1
1
1
1
1
1
1
1
1
1
1
1
1
1
1
1
1
1
1
1
1
1
1
1
1
1
1
1
1
1
1
1
1
1
1
1
1
1
1
1
1
1
1
1
1
1
1
1
1
1
1
1
1
1
1
1
1
1
1
1
1
1
1
1
1
1
1
1
1
1
1
1
1
1
1
1
1
1
1
1
1
1
1
1
1
1
1
1
1
1
1
1
1
1
1
1
1
1
1
1
1
1
1
1
1
1
1
1
1
1
1
1
1
1
1
1
1
1
1
1
1
1
1
1
1
1
1
1
1
1
1
1
1
1
1
1
1
1
1
1
1
1
1
1
1
1
1
1
1
1
1
1
1
1
1
1
1
1
1
1
1
1
1
1
1
1
1
1
1
1
1
1
1
1
1
1
1
1
1
1
1
1
1
1
1
1
1
1
1
1
1
1
1
1
1
1
1
1
1
1
1
1
1
1
1
1
1
1
1
1
1
1
1
1
1
1
1
1
1
1
1
1
1
1
1
1
1
1
1
1
1
1
1
1
1
1
1
1
1
1
1
1
1
1
1
1
1
1
1
1
1
1
1
1
1
1
1
1
1
1
1
1
1
1
1
1
1
1
1
1
1
1
1
1
1
1
1
</DataArray>
<DataArray NumberOfComponents='3' type='Float64' Name='Velocity' format='ascii'>
0 0 0
0 0 0
0 0 0
0 0 0
0 0 0
0 0 0
0 0 0
0 0 0
0 0 0
0 0 0
0 0 0
0 0 0
0 0 0
0 0 0
0 0 0
0 0 0
0 0 0
0 0 0
0 0 0
0 0 0
0 0 0
0 0 0
0.00460224 -0.0171317 0
0.00228799 -0.0232987 0
0.00365382 -0.0322175 0
0.00379701 -0.0456659 0
0.00520926 -0.0582732 0
0.00607396 -0.0641921 0
0.00404649 -0.0709939 0
0.00667288 -0.0752966 0
0.00587717 -0.0808229 0
0.00417739 -0.0852341 0
0.00632408 -0.0880669 0
0.00593248 -0.0926392 0
0.00400547 -0.0947894 0
0.00310599 -0.0966008 0
0.000710114 -0.102153 0
-0.00255216 -0.108033 0
-0.00375107 -0.112578 0
-0.00317586 -0.119558 0
-0.0025217 -0.13001 0
-0.001853 -0.140795 0
-0.000521172 -0.150283 0
0.00132973 -0.15966 0
0.00302893 -0.16965 0
0.00415598 -0.179164 0
0.00470671 -0.186984 0
0.00487406 -0.193185 0
0.00486771 -0.19872 0
0.00483901 -0.204301 0
0.00484015 -0.209888 0
0.00482003 -0.214953 0
0.00467701 -0.218986 0
0.004335 -0.221782 0
0.00379058 -0.223452 0
0.00310991 -0.224275 0
0.00239205 -0.224563 0
0.00172806 -0.224567 0
0.00117608 -0.224456 0
0.000756709 -0.224323 0
0.000461926 -0.224209 0
0.000268429 -0.224126 0
0.000148952 -0.224072 0
7.91477e-05 -0.224039 0
4.03744e-05 -0.22402 0
1.98169e-05 -0.22401 0
9.37801e-06 -0.224005 0
4.2868e-06 -0.224002 0
1.89594e-06 -0.224001 0
8.12545e-07 -0.224 0
3.37908e-07 -0.224 0
1.3653e-07 -0.224 0
5.36591e-08 -0.224 0
2.05356e-08 -0.224 0
7.66051e-09 -0.224 0
2.78791e-09 -0.224 0
9.90748e-10 -0.224 0
3.44096e-10 -0.224 0
1.16855e-10 -0.224 0
3.88485e-11 -0.224 0
1.2663e-11 -0.224 0
4.0445e-12 -0.224 0
1.26569e-12 -0.224 0
3.80231e-13 -0.224 0
8.20198e-14 -0.224 0
1.01446e-14 -0.224 0
9.24986e-16 -0.224 0
3.15566e-17 -0.224 0
-8.00007e-17 -0.224 0
-6.40719e-17 -0.224 0
-2.42984e-17 -0.224 0
-6.38153e-17 -0.224 0
5.08897e-17 -0.224 0
9.60153e-17 -0.224 0
-1.06744e-16 -0.224 0
-1.64625e-16 -0.224 0
1.20984e-16 -0.224 0
3.6403e-16 -0.224 0
7.11337e-17 -0.224 0
-1.81969e-16 -0.224 0
-1.17001e-16 -0.224 0
2.35523e-17 -0.224 0
9.37905e-16 -0.224 0
7.30961e-16 -0.224 0
-4.04882e-16 -0.224 0
-1.3884e-16 -0.224 0
-1.86899e-16 -0.224 0
-4.991e-16 -0.224 0
0.000163863 0.00177938 0
0.00034723 0.00297496 0
0.000689486 0.00349516 0
0.000925321 0.00307361 0
0.000163816 0.00349388 0
0.00146071 0.00130074 0
-6.81048e-05 0.00366314 0
-0.00174226 -0.00140916 0
0.00119277 -0.00251822 0
0.00116367 0.000921322 0
-0.000139692 -0.00098025 0
-0.000183781 0.000702432 0
-0.00118046 0.000442229 0
0.00103148 -0.00776017 0
0.00260869 -0.0176665 0
0.00126665 -0.0224217 0
0.00219024 -0.0315187 0
0.00266944 -0.0440523 0
0.00369374 -0.055611 0
0.00454701 -0.0649024 0
0.0047178 -0.0728325 0
0.00658805 -0.0774342 0
0.00678866 -0.0814817 0
0.00591905 -0.0851327 0
0.00594887 -0.0881673 0
0.00496861 -0.0922088 0
0.00364874 -0.0952196 0
0.00282008 -0.0976541 0
0.000981986 -0.1019 0
-0.00155892 -0.10714 0
-0.00296121 -0.112762 0
-0.00303574 -0.120551 0
-0.00264185 -0.130763 0
-0.00189336 -0.141264 0
-0.000505705 -0.150877 0
0.00129779 -0.160317 0
0.00293811 -0.170049 0
0.00403876 -0.179251 0
0.00458782 -0.186976 0
0.00477554 -0.19327 0
0.00480749 -0.198905 0
0.00481427 -0.204476 0
0.00482913 -0.209947 0
0.00480182 -0.214855 0
0.00464658 -0.218751 0
0.00430246 -0.221461 0
0.00377021 -0.2231 0
0.00311008 -0.223942 0
0.00241202 -0.224278 0
0.00176071 -0.224344 0
0.00121267 -0.224294 0
0.000790375 -0.224213 0
0.000489015 -0.224139 0
0.000288097 -0.224084 0
0.000162081 -0.224048 0
8.73074e-05 -0.224026 0
4.51383e-05 -0.224013 0
2.24474e-05 -0.224007 0
1.07592e-05 -0.224003 0
4.97929e-06 -0.224001 0
2.22868e-06 -0.224001 0
9.66217e-07 -0.224 0
4.063e-07 -0.224 0
1.65927e-07 -0.224 0
6.58858e-08 -0.224 0
2.54651e-08 -0.224 0
9.58971e-09 -0.224 0
3.52201e-09 -0.224 0
1.26266e-09 -0.224 0
4.42236e-10 -0.224 0
1.51419e-10 -0.224 0
5.07321e-11 -0.224 0
1.66294e-11 -0.224 0
5.32659e-12 -0.224 0
1.69882e-12 -0.224 0
5.24445e-13 -0.224 0
1.4108e-13 -0.224 0
1.79118e-14 -0.224 0
1.4904e-15 -0.224 0
-7.12567e-18 -0.224 0
-1.40215e-16 -0.224 0
-8.38477e-17 -0.224 0
5.75348e-17 -0.224 0
7.22244e-17 -0.224 0
8.14414e-17 -0.224 0
-6.50397e-17 -0.224 0
-2.4981e-16 -0.224 0
-5.55063e-17 -0.224 0
2.60617e-16 -0.224 0
2.70818e-16 -0.224 0
-8.99471e-17 -0.224 0
-1.12207e-16 -0.224 0
-7.55325e-17 -0.224 0
1.90562e-16 -0.224 0
4.71557e-16 -0.224 0
-3.31389e-16 -0.224 0
-3.63181e-16 -0.224 0
1.38036e-16 -0.224 0
-1.66164e-16 -0.224 0
-5.97167e-17 -0.224 0
-0.000472187 -0.00139244 0
-0.000752792 -0.00248782 0
-7.51545e-05 -0.00381022 0
0.000604516 -0.00445496 0
-0.000539845 -0.00279905 0
0.000874618 -0.00812119 0
0.00109221 -0.00346533 0
-0.000409229 -0.00801843 0
0.00135764 -0.00942738 0
0.00118579 -0.00529455 0
0.000531929 -0.010283 0
0.00180158 -0.00955343 0
0.000996778 -0.00747781 0
0.00152426 -0.0149295 0
0.00299403 -0.0217654 0
0.00292511 -0.0247026 0
0.00327546 -0.0318553 0
0.00339846 -0.0458568 0
0.00466204 -0.0575891 0
0.00515122 -0.0640938 0
0.00500177 -0.0716184 0
0.00559962 -0.077298 0
0.00573618 -0.0814883 0
0.00563749 -0.0850679 0
0.0055587 -0.0884072 0
0.00480044 -0.0924148 0
0.00394233 -0.0960825 0
0.00309444 -0.0987577 0
0.00136129 -0.101857 0
-0.000863036 -0.106403 0
-0.00234297 -0.112682 0
-0.00283964 -0.121144 0
-0.00273406 -0.131296 0
-0.00201494 -0.141579 0
-0.000563246 -0.151205 0
0.00128482 -0.160642 0
0.00293554 -0.170187 0
0.00401656 -0.179202 0
0.00452756 -0.186932 0
0.00468627 -0.193381 0
0.00471896 -0.199152 0
0.00475064 -0.204727 0
0.0047941 -0.210076 0
0.00478523 -0.214806 0
0.00463835 -0.218541 0
0.00429955 -0.221151 0
0.00377461 -0.222758 0
0.0031238 -0.223621 0
0.00243412 -0.224009 0
0.00178753 -0.224139 0
0.00123975 -0.224149 0
0.00081422 -0.224117 0
0.000507834 -0.224079 0
0.000301654 -0.224048 0
0.000171113 -0.224028 0
9.29262e-05 -0.224015 0
4.84271e-05 -0.224008 0
2.42694e-05 -0.224004 0
1.17192e-05 -0.224002 0
5.46239e-06 -0.224001 0
2.46163e-06 -0.224 0
1.07416e-06 -0.224 0
4.54493e-07 -0.224 0
1.86703e-07 -0.224 0
7.45507e-08 -0.224 0
2.89672e-08 -0.224 0
1.09638e-08 -0.224 0
4.04596e-09 -0.224 0
1.45703e-09 -0.224 0
5.12467e-10 -0.224 0
1.76213e-10 -0.224 0
5.92109e-11 -0.224 0
1.9516e-11 -0.224 0
6.29757e-12 -0.224 0
1.99068e-12 -0.224 0
6.19079e-13 -0.224 0
1.78591e-13 -0.224 0
2.47426e-14 -0.224 0
2.08909e-15 -0.224 0
-1.59997e-17 -0.224 0
-1.4252e-16 -0.224 0
-3.67126e-17 -0.224 0
1.49451e-16 -0.224 0
1.73709e-16 -0.224 0
-4.50277e-17 -0.224 0
-2.56958e-16 -0.224 0
-1.15015e-16 -0.224 0
1.04649e-16 -0.224 0
9.06468e-17 -0.224 0
-3.7268e-17 -0.224 0
-1.19813e-17 -0.224 0
2.32271e-16 -0.224 0
-3.30357e-17 -0.224 0
-2.03649e-16 -0.224 0
-5.62228e-16 -0.224 0
-5.62103e-16 -0.224 0
4.21317e-16 -0.224 0
1.28081e-16 -0.224 0
-6.26777e-17 -0.224 0
3.70619e-16 -0.224 0
0.000672935 -0.000562357 0
0.000460107 -0.00194556 0
0.000117187 -0.0016033 0
0.000944093 -0.00643117 0
0.000509578 -0.00360598 0
0.000571662 -0.00966015 0
0.00106054 -0.00473667 0
0.000605535 -0.00687934 0
0.00112244 -0.00812772 0
0.000949901 -0.00548073 0
0.000143077 -0.0121257 0
0.00108999 -0.0123072 0
0.000258582 -0.0125567 0
0.00134149 -0.0188228 0
0.00284415 -0.0276255 0
0.00334313 -0.0296593 0
0.00384051 -0.040581 0
0.0039165 -0.0508927 0
0.00525219 -0.0560916 0
0.00572088 -0.0618282 0
0.00567312 -0.0689157 0
0.00503625 -0.0751918 0
0.00405482 -0.0807349 0
0.00403814 -0.0856307 0
0.00464729 -0.0894769 0
0.00505156 -0.0931285 0
0.00501443 -0.0967566 0
0.00398893 -0.0993401 0
0.00179256 -0.101792 0
-0.000564798 -0.106019 0
-0.0020783 -0.112694 0
-0.00272806 -0.121528 0
-0.00277652 -0.131637 0
-0.00210502 -0.141794 0
-0.000618162 -0.151423 0
0.00129349 -0.160838 0
0.00299076 -0.170238 0
0.00406946 -0.179127 0
0.00452876 -0.186896 0
0.00462086 -0.193519 0
0.00461403 -0.19945 0
0.00464902 -0.205053 0
0.00472508 -0.210286 0
0.00475509 -0.214826 0
0.0046383 -0.218379 0
0.00431704 -0.220867 0
0.00379987 -0.222428 0
0.00315102 -0.223304 0
0.0024602 -0.223743 0
0.00181075 -0.223935 0
0.00125913 -0.224005 0
0.000829387 -0.224022 0
0.000518956 -0.22402 0
0.000309306 -0.224014 0
0.000176066 -0.224009 0
9.59522e-05 -0.224005 0
5.01785e-05 -0.224002 0
2.52331e-05 -0.224001 0
1.2225e-05 -0.224001 0
5.71633e-06 -0.224 0
2.58395e-06 -0.224 0
1.13084e-06 -0.224 0
4.79804e-07 -0.224 0
1.9762e-07 -0.224 0
7.91077e-08 -0.224 0
3.08108e-08 -0.224 0
1.16878e-08 -0.224 0
4.32232e-09 -0.224 0
1.55966e-09 -0.224 0
5.49651e-10 -0.224 0
1.89281e-10 -0.224 0
6.3772e-11 -0.224 0
2.10183e-11 -0.224 0
6.7794e-12 -0.224 0
2.1728e-12 -0.224 0
6.78891e-13 -0.224 0
1.92992e-13 -0.224 0
2.88172e-14 -0.224 0
2.49755e-15 -0.224 0
9.31498e-17 -0.224 0
2.4377e-18 -0.224 0
-2.75777e-18 -0.224 0
5.82157e-18 -0.224 0
-3.70226e-18 -0.224 0
-1.51713e-16 -0.224 0
-9.16491e-17 -0.224 0
1.9553e-16 -0.224 0
1.08385e-16 -0.224 0
-8.55788e-17 -0.224 0
-1.26945e-16 -0.224 0
2.2983e-16 -0.224 0
2.71921e-16 -0.224 0
-5.55053e-17 -0.224 0
-2.46461e-16 -0.224 0
-3.41346e-16 -0.224 0
5.07314e-16 -0.224 0
5.44223e-16 -0.224 0
-6.16057e-16 -0.224 0
-3.16582e-16 -0.224 0
-8.88854e-17 -0.224 0
0.00184136 0.00175418 0
0.00142086 0.00330862 0
0.000548303 0.00584285 0
0.000485439 0.00690354 0
0.00235382 0.0130591 0
0.00202592 0.00728263 0
0.000862669 0.0104394 0
-0.000110193 0.00877789 0
-0.00156528 0.00774574 0
0.000650977 0.00780502 0
0.000861534 -0.00211299 0
-9.84284e-05 -0.00472007 0
-0.000104932 -0.00844626 0
0.000456043 -0.0158058 0
0.00216773 -0.0237842 0
0.00336943 -0.0295798 0
0.00313803 -0.0408031 0
0.0027454 -0.0478527 0
0.00312166 -0.0557342 0
0.00405126 -0.0615348 0
0.00575108 -0.0675512 0
0.00537391 -0.0737159 0
0.00378915 -0.0799378 0
0.00316211 -0.0862321 0
0.00366323 -0.0907249 0
0.00502806 -0.0939168 0
0.00605 -0.0969355 0
0.00508078 -0.0991771 0
0.00230517 -0.101568 0
-0.000508692 -0.106013 0
-0.00219104 -0.112976 0
-0.00284428 -0.121879 0
-0.00282676 -0.131862 0
-0.00209835 -0.141938 0
-0.000591867 -0.151601 0
0.00134129 -0.161022 0
0.00308134 -0.170315 0
0.00418125 -0.179088 0
0.00459733 -0.186876 0
0.00459811 -0.193657 0
0.00451033 -0.19976 0
0.00451857 -0.205422 0
0.00462281 -0.210564 0
0.00470745 -0.214918 0
0.00464135 -0.218275 0
0.00435077 -0.220622 0
0.00384326 -0.222118 0
0.00319012 -0.222997 0
0.00248923 -0.22348 0
0.00182953 -0.223733 0
0.00127 -0.223862 0
0.000835107 -0.223928 0
0.000521709 -0.223962 0
0.000310521 -0.22398 0
0.000176553 -0.22399 0
9.61273e-05 -0.223995 0
5.02319e-05 -0.223997 0
2.52447e-05 -0.223999 0
1.22249e-05 -0.223999 0
5.71419e-06 -0.224 0
2.58226e-06 -0.224 0
1.12986e-06 -0.224 0
4.79314e-07 -0.224 0
1.97397e-07 -0.224 0
7.90122e-08 -0.224 0
3.07721e-08 -0.224 0
1.16728e-08 -0.224 0
4.31665e-09 -0.224 0
1.55768e-09 -0.224 0
5.48947e-10 -0.224 0
1.89023e-10 -0.224 0
6.36983e-11 -0.224 0
2.09971e-11 -0.224 0
6.77134e-12 -0.224 0
2.16364e-12 -0.224 0
6.75515e-13 -0.224 0
1.92198e-13 -0.224 0
2.85876e-14 -0.224 0
2.47448e-15 -0.224 0
2.05279e-16 -0.224 0
-9.54154e-19 -0.224 0
-1.39562e-16 -0.224 0
-1.07375e-16 -0.224 0
-7.31897e-17 -0.224 0
-4.05382e-17 -0.224 0
1.13923e-16 -0.224 0
1.75333e-16 -0.224 0
1.66217e-16 -0.224 0
-1.17893e-16 -0.224 0
-2.94738e-16 -0.224 0
1.44585e-16 -0.224 0
1.36992e-17 -0.224 0
2.39887e-17 -0.224 0
1.11935e-16 -0.224 0
3.26134e-16 -0.224 0
4.59848e-16 -0.224 0
-5.8408e-16 -0.224 0
1.74815e-17 -0.224 0
3.41616e-16 -0.224 0
-5.30522e-16 -0.224 0
0.000553722 0.00549906 0
7.38011e-05 0.00970564 0
-0.00101073 0.0141364 0
-0.000393016 0.019551 0
0.00243444 0.0226576 0
0.000434674 0.0217813 0
0.00116562 0.024367 0
0.00163874 0.0208652 0
-0.0026009 0.0179219 0
-0.000733193 0.0166434 0
0.00227312 0.00840765 0
0.00103968 0.00265773 0
0.00184374 -0.003447 0
0.00185053 -0.0137282 0
0.00257239 -0.0199448 0
0.00445123 -0.0296605 0
0.00435746 -0.0386436 0
0.00255508 -0.0474171 0
0.000755528 -0.0545333 0
0.00301894 -0.06083 0
0.00585725 -0.0690392 0
0.00516711 -0.0745097 0
0.00361793 -0.0793878 0
0.00281209 -0.0859051 0
0.00305681 -0.0910783 0
0.00490304 -0.0943927 0
0.00665903 -0.0967678 0
0.00593247 -0.0985239 0
0.002869 -0.101184 0
-0.000469066 -0.106156 0
-0.0025531 -0.113369 0
-0.0032306 -0.122233 0
-0.00296185 -0.132075 0
-0.00202358 -0.142077 0
-0.000481288 -0.151784 0
0.00143129 -0.161256 0
0.00320219 -0.170488 0
0.00434402 -0.179134 0
0.00472875 -0.186875 0
0.00461957 -0.193758 0
0.00441533 -0.200028 0
0.0043704 -0.205787 0
0.00449846 -0.210883 0
0.00465018 -0.215076 0
0.00465061 -0.218237 0
0.00439961 -0.220427 0
0.00390111 -0.221839 0
0.00323671 -0.222706 0
0.00251731 -0.223223 0
0.001841 -0.223532 0
0.00127052 -0.223719 0
0.000830316 -0.223833 0
0.000515538 -0.223903 0
0.000305031 -0.223945 0
0.00017246 -0.22397 0
9.34054e-05 -0.223984 0