<?xml version='1.0' encoding='UTF-8'?>
<VTKFile byte_order='LittleEndian' version='0.1' type = 'UnstructuredGrid'>
<UnstructuredGrid>
<FieldData>
<DataArray type='Float64' Name='Time' NumberOfComponents='1' NumberOfTuples='1' format='ascii'>
0.88
</DataArray>
</FieldData>
<Piece NumberOfCells='808' NumberOfPoints='808'>
<Points>
<DataArray NumberOfComponents='3' type='Float64' Name='position' format='ascii'>
0 0 0
0 0.025 0
0 0.05 0
0 0.075 0
0 0.1 0
0 0.125 0
0 0.15 0
0 0.175 0
0.025 0 0
0.05 0 0
0.075 0 0
0.1 0 0
0.125 0 0
0.15 0 0
0.175 0 0
0.2 0 0
0.225 0 0
0.25 0 0
0.275 0 0
0.3 0 0
0.325 0 0
0.35 0 0
0.376956 -0.0133438 0
0.401989 -0.020679 0
0.427008 -0.0265179 0
0.451947 -0.0315684 0
0.476905 -0.0361749 0
0.501819 -0.0405294 0
0.52674 -0.0446544 0
0.551734 -0.0485873 0
0.576724 -0.0523784 0
0.601745 -0.0559295 0
0.626803 -0.0592334 0
0.651818 -0.0622825 0
0.676774 -0.0649803 0
0.701707 -0.0673189 0
0.726613 -0.0693776 0
0.75148 -0.0711761 0
0.77632 -0.072679 0
0.801162 -0.0738904 0
0.826021 -0.0748653 0
0.850894 -0.0756525 0
0.875769 -0.0762668 0
0.900642 -0.0767076 0
0.925513 -0.0769876 0
0.950389 -0.0771392 0
0.975279 -0.0772044 0
1.00019 -0.077221 0
1.02512 -0.077216 0
1.05007 -0.0772048 0
1.07504 -0.0771943 0
1.10002 -0.0771866 0
1.12501 -0.0771818 0
1.15001 -0.077179 0
1.175 -0.0771776 0
1.2 -0.0771768 0
1.225 -0.0771765 0
1.25 -0.0771763 0
1.275 -0.0771762 0
1.3 -0.0771762 0
1.325 -0.0771762 0
1.35 -0.0771762 0
1.375 -0.0771762 0
1.4 -0.0771762 0
1.425 -0.0771762 0
1.45 -0.0771762 0
1.475 -0.0771762 0
1.5 -0.0771762 0
1.525 -0.0771762 0
1.55 -0.0771762 0
1.575 -0.0771762 0
1.6 -0.0771762 0
1.625 -0.0771762 0
1.65 -0.0771762 0
1.675 -0.0771762 0
1.7 -0.0771762 0
1.725 -0.0771762 0
1.75 -0.0771762 0
1.775 -0.0771762 0
1.8 -0.0771762 0
1.825 -0.0771762 0
1.85 -0.0771762 0
1.875 -0.0771762 0
1.9 -0.0771762 0
1.925 -0.0771762 0
1.95 -0.0771762 0
1.975 -0.0771762 0
2 -0.0771762 0
2.025 -0.0771762 0
2.05 -0.0771762 0
2.075 -0.0771762 0
2.1 -0.0771762 0
2.125 -0.0771762 0
2.15 -0.0771762 0
2.175 -0.0771762 0
2.2 -0.0771762 0
2.225 -0.0771762 0
2.25 -0.0771762 0
2.275 -0.0771762 0
2.3 -0.0771762 0
2.325 -0.0771762 0
2.35 -0.0771762 0
2.375 -0.0771762 0
2.4 -0.0771762 0
2.425 -0.0771762 0
2.45 -0.0771762 0
2.475 -0.0771762 0
2.5 -0.0771762 0
0.0249003 0.0245325 0
0.0498734 0.0242505 0
0.0748671 0.0239924 0
0.0998583 0.0237925 0
0.124862 0.0235632 0
0.149855 0.0233717 0
0.174838 0.0231337 0
0.199861 0.0228136 0
0.224884 0.0225077 0
0.249896 0.0220859 0
0.274962 0.021491 0
0.30013 0.0206777 0
0.3255 0.0191575 0
0.35146 0.0158099 0
0.377174 0.00939476 0
0.402117 0.00339562 0
0.427062 -0.00194522 0
0.451973 -0.00681583 0
0.476896 -0.0113571 0
0.50181 -0.0156676 0
0.526743 -0.0197831 0
0.551727 -0.0237126 0
0.576733 -0.0274718 0
0.601762 -0.0310043 0
0.626802 -0.0342825 0
0.651807 -0.0372887 0
0.676766 -0.0399666 0
0.701696 -0.0423056 0
0.726599 -0.0443511 0
0.751471 -0.0461232 0
0.776322 -0.0476097 0
0.801171 -0.0488207 0
0.82603 -0.0498 0
0.8509 -0.0505877 0
0.875773 -0.0511998 0
0.900644 -0.051641 0
0.925516 -0.0519266 0
0.950394 -0.0520881 0
0.975285 -0.052165 0
1.0002 -0.0521929 0
1.02513 -0.0521973 0
1.05008 -0.0521931 0
1.07504 -0.0521874 0
1.10002 -0.0521828 0
1.12501 -0.0521798 0
1.15001 -0.052178 0
1.175 -0.0521771 0
1.2 -0.0521766 0
1.225 -0.0521764 0
1.25 -0.0521763 0
1.275 -0.0521762 0
1.3 -0.0521762 0
1.325 -0.0521762 0
1.35 -0.0521762 0
1.375 -0.0521762 0
1.4 -0.0521762 0
1.425 -0.0521762 0
1.45 -0.0521762 0
1.475 -0.0521762 0
1.5 -0.0521762 0
1.525 -0.0521762 0
1.55 -0.0521762 0
1.575 -0.0521762 0
1.6 -0.0521762 0
1.625 -0.0521762 0
1.65 -0.0521762 0
1.675 -0.0521762 0
1.7 -0.0521762 0
1.725 -0.0521762 0
1.75 -0.0521762 0
1.775 -0.0521762 0
1.8 -0.0521762 0
1.825 -0.0521762 0
1.85 -0.0521762 0
1.875 -0.0521762 0
1.9 -0.0521762 0
1.925 -0.0521762 0
1.95 -0.0521762 0
1.975 -0.0521762 0
2 -0.0521762 0
2.025 -0.0521762 0
2.05 -0.0521762 0
2.075 -0.0521762 0
2.1 -0.0521762 0
2.125 -0.0521762 0
2.15 -0.0521762 0
2.175 -0.0521762 0
2.2 -0.0521762 0
2.225 -0.0521762 0
2.25 -0.0521762 0
2.275 -0.0521762 0
2.3 -0.0521762 0
2.325 -0.0521762 0
2.35 -0.0521762 0
2.375 -0.0521762 0
2.4 -0.0521762 0
2.425 -0.0521762 0
2.45 -0.0521762 0
2.475 -0.0521762 0
2.5 -0.0521762 0
0.0248571 0.0492328 0
0.0498073 0.0487302 0
0.0747869 0.0482483 0
0.0997733 0.0478608 0
0.124785 0.0474288 0
0.149803 0.0470812 0
0.174814 0.0466896 0
0.199867 0.0461686 0
0.224929 0.0456586 0
0.250001 0.0449555 0
0.275147 0.0439808 0
0.300433 0.0427041 0
0.325916 0.0406424 0
0.351628 0.0372355 0
0.377129 0.032363 0
0.40219 0.027326 0
0.427124 0.0224607 0
0.452025 0.0178344 0
0.476921 0.0134185 0
0.501819 0.00917945 0
0.526743 0.00510049 0
0.551713 0.00118953 0
0.576722 -0.00254651 0
0.601759 -0.00606219 0
0.626795 -0.0093173 0
0.651799 -0.012294 0
0.676762 -0.01496 0
0.701691 -0.0172996 0
0.72659 -0.0193349 0
0.751464 -0.0210852 0
0.776323 -0.0225545 0
0.801178 -0.0237595 0
0.82604 -0.024738 0
0.850908 -0.0255245 0
0.875779 -0.0261351 0
0.90065 -0.0265779 0
0.925522 -0.0268697 0
0.9504 -0.0270412 0
0.975291 -0.0271296 0
1.0002 -0.0271682 0
1.02513 -0.0271812 0
1.05008 -0.0271832 0
1.07505 -0.0271817 0
1.10003 -0.0271797 0
1.12501 -0.0271782 0
1.15001 -0.0271772 0
1.175 -0.0271767 0
1.2 -0.0271764 0
1.225 -0.0271763 0
1.25 -0.0271762 0
1.275 -0.0271762 0
1.3 -0.0271762 0
1.325 -0.0271762 0
1.35 -0.0271762 0
1.375 -0.0271762 0
1.4 -0.0271762 0
1.425 -0.0271762 0
1.45 -0.0271762 0
1.475 -0.0271762 0
1.5 -0.0271762 0
1.525 -0.0271762 0
1.55 -0.0271762 0
1.575 -0.0271762 0
1.6 -0.0271762 0
1.625 -0.0271762 0
1.65 -0.0271762 0
1.675 -0.0271762 0
1.7 -0.0271762 0
1.725 -0.0271762 0
1.75 -0.0271762 0
1.775 -0.0271762 0
1.8 -0.0271762 0
1.825 -0.0271762 0
1.85 -0.0271762 0
1.875 -0.0271762 0
1.9 -0.0271762 0
1.925 -0.0271762 0
1.95 -0.0271762 0
1.975 -0.0271762 0
2 -0.0271762 0
2.025 -0.0271762 0
2.05 -0.0271762 0
2.075 -0.0271762 0
2.1 -0.0271762 0
2.125 -0.0271762 0
2.15 -0.0271762 0
2.175 -0.0271762 0
2.2 -0.0271762 0
2.225 -0.0271762 0
2.25 -0.0271762 0
2.275 -0.0271762 0
2.3 -0.0271762 0
2.325 -0.0271762 0
2.35 -0.0271762 0
2.375 -0.0271762 0
2.4 -0.0271762 0
2.425 -0.0271762 0
2.45 -0.0271762 0
2.475 -0.0271762 0
2.5 -0.0271762 0
0.0248596 0.0739466 0
0.0497962 0.0732184 0
0.074766 0.0725071 0
0.0997544 0.0719758 0
0.124771 0.0713548 0
0.149803 0.0708282 0
0.17486 0.0702906 0
0.199944 0.0696167 0
0.225042 0.0689338 0
0.250185 0.0680008 0
0.27539 0.0667286 0
0.300681 0.0651401 0
0.326121 0.0628824 0
0.35163 0.0596435 0
0.377008 0.0556198 0
0.40214 0.0512287 0
0.427124 0.0468009 0
0.452053 0.0424103 0
0.476945 0.0381344 0
0.501831 0.0340098 0
0.526737 0.0299994 0
0.551687 0.0261174 0
0.576692 0.0223883 0
0.601732 0.0188738 0
0.626773 0.0156309 0
0.651786 0.0126743 0
0.676759 0.0100217 0
0.70169 0.00768959 0
0.726586 0.00566763 0
0.75146 0.00393714 0
0.776322 0.00248555 0
0.801183 0.00129087 0
0.826048 0.000317662 0
0.850917 -0.000465248 0
0.875788 -0.00107385 0
0.900658 -0.00151806 0
0.925529 -0.00181579 0
0.950406 -0.00199675 0
0.975296 -0.00209585 0
1.0002 -0.00214452 0
1.02513 -0.00216575 0
1.05008 -0.00217378 0
1.07505 -0.00217626 0
1.10003 -0.00217673 0
1.12501 -0.00217663 0
1.15001 -0.00217646 0
1.175 -0.00217634 0
1.2 -0.00217627 0
1.225 -0.00217623 0
1.25 -0.00217621 0
1.275 -0.00217621 0
1.3 -0.0021762 0
1.325 -0.0021762 0
1.35 -0.0021762 0
1.375 -0.0021762 0
1.4 -0.0021762 0
1.425 -0.0021762 0
1.45 -0.0021762 0
1.475 -0.0021762 0
1.5 -0.0021762 0
1.525 -0.0021762 0
1.55 -0.0021762 0
1.575 -0.0021762 0
1.6 -0.0021762 0
1.625 -0.0021762 0
1.65 -0.0021762 0
1.675 -0.0021762 0
1.7 -0.0021762 0
1.725 -0.0021762 0
1.75 -0.0021762 0
1.775 -0.0021762 0
1.8 -0.0021762 0
1.825 -0.0021762 0
1.85 -0.0021762 0
1.875 -0.0021762 0
1.9 -0.0021762 0
1.925 -0.0021762 0
1.95 -0.0021762 0
1.975 -0.0021762 0
2 -0.0021762 0
2.025 -0.0021762 0
2.05 -0.0021762 0
2.075 -0.0021762 0
2.1 -0.0021762 0
2.125 -0.0021762 0
2.15 -0.0021762 0
2.175 -0.0021762 0
2.2 -0.0021762 0
2.225 -0.0021762 0
2.25 -0.0021762 0
2.275 -0.0021762 0
2.3 -0.0021762 0
2.325 -0.0021762 0
2.35 -0.0021762 0
2.375 -0.0021762 0
2.4 -0.0021762 0
2.425 -0.0021762 0
2.45 -0.0021762 0
2.475 -0.0021762 0
2.5 -0.0021762 0
0.0248829 0.098795 0
0.049822 0.0979399 0
0.0747893 0.0971321 0
0.0998086 0.0964517 0
0.124832 0.0956928 0
0.149861 0.0950174 0
0.174945 0.0943236 0
0.200038 0.0935286 0
0.225155 0.092688 0
0.250344 0.091573 0
0.275585 0.0901172 0
0.300857 0.0882964 0
0.32621 0.0859234 0
0.351592 0.0828508 0
0.376878 0.0792508 0
0.402022 0.0752894 0
0.427063 0.0711538 0
0.452022 0.0669552 0
0.476921 0.0628618 0
0.501806 0.0588577 0
0.526701 0.0549157 0
0.551646 0.0510607 0
0.576656 0.0473242 0
0.6017 0.0437963 0
0.626745 0.0405523 0
0.651769 0.0376083 0
0.676754 0.0349747 0
0.70169 0.032662 0
0.726586 0.0306592 0
0.751458 0.0289482 0
0.776321 0.0275135 0
0.801184 0.0263305 0
0.826052 0.0253646 0
0.850924 0.0245868 0
0.875797 0.0239812 0
0.900668 0.0235368 0
0.925537 0.0232345 0
0.950413 0.0230454 0
0.975301 0.0229365 0
1.00021 0.0228784 0
1.02514 0.0228493 0
1.05008 0.0228354 0
1.07505 0.0228291 0
1.10003 0.0228262 0
1.12501 0.0228249 0
1.15001 0.0228243 0
1.175 0.022824 0
1.2 0.0228239 0
1.225 0.0228238 0
1.25 0.0228238 0
1.275 0.0228238 0
1.3 0.0228238 0
1.325 0.0228238 0
1.35 0.0228238 0
1.375 0.0228238 0
1.4 0.0228238 0
1.425 0.0228238 0
1.45 0.0228238 0
1.475 0.0228238 0
1.5 0.0228238 0
1.525 0.0228238 0
1.55 0.0228238 0
1.575 0.0228238 0
1.6 0.0228238 0
1.625 0.0228238 0
1.65 0.0228238 0
1.675 0.0228238 0
1.7 0.0228238 0
1.725 0.0228238 0
1.75 0.0228238 0
1.775 0.0228238 0
1.8 0.0228238 0
1.825 0.0228238 0
1.85 0.0228238 0
1.875 0.0228238 0
1.9 0.0228238 0
1.925 0.0228238 0
1.95 0.0228238 0
1.975 0.0228238 0
2 0.0228238 0
2.025 0.0228238 0
2.05 0.0228238 0
2.075 0.0228238 0
2.1 0.0228238 0
2.125 0.0228238 0
2.15 0.0228238 0
2.175 0.0228238 0
2.2 0.0228238 0
2.225 0.0228238 0
2.25 0.0228238 0
2.275 0.0228238 0
2.3 0.0228238 0
2.325 0.0228238 0
2.35 0.0228238 0
2.375 0.0228238 0
2.4 0.0228238 0
2.425 0.0228238 0
2.45 0.0228238 0
2.475 0.0228238 0
2.5 0.0228238 0
0.0249003 0.123662 0
0.0498545 0.122695 0
0.074834 0.121804 0
0.0998625 0.120986 0
0.124889 0.120205 0
0.149953 0.119438 0
0.17505 0.118602 0
0.200123 0.117711 0
0.225265 0.116707 0
0.250483 0.115427 0
0.275712 0.113867 0
0.30097 0.111927 0
0.326272 0.109478 0
0.35156 0.106548 0
0.376765 0.103213 0
0.401898 0.0995384 0
0.426974 0.0956164 0
0.451965 0.091627 0
0.476877 0.0876805 0
0.501744 0.083753 0
0.526623 0.0798559 0
0.551583 0.0760044 0
0.576618 0.0722492 0
0.601676 0.0687056 0
0.626727 0.0654542 0
0.651757 0.0625185 0
0.676747 0.0599089 0
0.701687 0.0576236 0
0.726586 0.0556442 0
0.751459 0.0539527 0
0.77632 0.0525336 0
0.801182 0.051361 0
0.826052 0.0504015 0
0.850928 0.0496285 0
0.875805 0.0490272 0
0.900678 0.0485845 0
0.925546 0.0482801 0
0.950419 0.048085 0
0.975304 0.0479678 0
1.00021 0.0479009 0
1.02513 0.0478643 0
1.05008 0.0478447 0
1.07505 0.0478344 0
1.10003 0.0478291 0
1.12501 0.0478264 0
1.15001 0.047825 0
1.175 0.0478244 0
1.2 0.0478241 0
1.225 0.0478239 0
1.25 0.0478238 0
1.275 0.0478238 0
1.3 0.0478238 0
1.325 0.0478238 0
1.35 0.0478238 0
1.375 0.0478238 0
1.4 0.0478238 0
1.425 0.0478238 0
1.45 0.0478238 0
1.475 0.0478238 0
1.5 0.0478238 0
1.525 0.0478238 0
1.55 0.0478238 0
1.575 0.0478238 0
1.6 0.0478238 0
1.625 0.0478238 0
1.65 0.0478238 0
1.675 0.0478238 0
1.7 0.0478238 0
1.725 0.0478238 0
1.75 0.0478238 0
1.775 0.0478238 0
1.8 0.0478238 0
1.825 0.0478238 0
1.85 0.0478238 0
1.875 0.0478238 0
1.9 0.0478238 0
1.925 0.0478238 0
1.95 0.0478238 0
1.975 0.0478238 0
2 0.0478238 0
2.025 0.0478238 0
2.05 0.0478238 0
2.075 0.0478238 0
2.1 0.0478238 0
2.125 0.0478238 0
2.15 0.0478238 0
2.175 0.0478238 0
2.2 0.0478238 0
2.225 0.0478238 0
2.25 0.0478238 0
2.275 0.0478238 0
2.3 0.0478238 0
2.325 0.0478238 0
2.35 0.0478238 0
2.375 0.0478238 0
2.4 0.0478238 0
2.425 0.0478238 0
2.45 0.0478238 0
2.475 0.0478238 0
2.5 0.0478238 0
0.024909 0.148534 0
0.0498789 0.147463 0
0.0748636 0.146515 0
0.0998828 0.145632 0
0.12492 0.144846 0
0.15003 0.144003 0
0.175132 0.143089 0
0.200194 0.142141 0
0.225375 0.140986 0
0.250604 0.139596 0
0.275789 0.13798 0
0.301034 0.135958 0
0.326325 0.133481 0
0.351538 0.130675 0
0.376662 0.127527 0
0.401781 0.124009 0
0.426897 0.120231 0
0.451932 0.116395 0
0.476845 0.112563 0
0.501678 0.108707 0
0.526544 0.104817 0
0.551517 0.100926 0
0.576573 0.0971434 0
0.601656 0.0935909 0
0.626726 0.0903375 0
0.651758 0.0874148 0
0.676742 0.0848331 0
0.701681 0.0825769 0
0.726585 0.0806215 0
0.751461 0.0789504 0
0.776319 0.0775467 0
0.801178 0.0763825 0
0.826049 0.0754266 0
0.85093 0.0746573 0
0.875812 0.0740611 0
0.900687 0.0736232 0
0.925554 0.07332 0
0.950423 0.0731217 0
0.975305 0.0729978 0
1.00021 0.0729232 0
1.02513 0.0728794 0
1.05008 0.0728542 0
1.07505 0.07284 0
1.10003 0.0728322 0
1.12501 0.072828 0
1.15001 0.0728258 0
1.175 0.0728247 0
1.2 0.0728242 0
1.225 0.072824 0
1.25 0.0728239 0
1.275 0.0728238 0
1.3 0.0728238 0
1.325 0.0728238 0
1.35 0.0728238 0
1.375 0.0728238 0
1.4 0.0728238 0
1.425 0.0728238 0
1.45 0.0728238 0
1.475 0.0728238 0
1.5 0.0728238 0
1.525 0.0728238 0
1.55 0.0728238 0
1.575 0.0728238 0
1.6 0.0728238 0
1.625 0.0728238 0
1.65 0.0728238 0
1.675 0.0728238 0
1.7 0.0728238 0
1.725 0.0728238 0
1.75 0.0728238 0
1.775 0.0728238 0
1.8 0.0728238 0
1.825 0.0728238 0
1.85 0.0728238 0
1.875 0.0728238 0
1.9 0.0728238 0
1.925 0.0728238 0
1.95 0.0728238 0
1.975 0.0728238 0
2 0.0728238 0
2.025 0.0728238 0
2.05 0.0728238 0
2.075 0.0728238 0
2.1 0.0728238 0
2.125 0.0728238 0
2.15 0.0728238 0
2.175 0.0728238 0
2.2 0.0728238 0
2.225 0.0728238 0
2.25 0.0728238 0
2.275 0.0728238 0
2.3 0.0728238 0
2.325 0.0728238 0
2.35 0.0728238 0
2.375 0.0728238 0
2.4 0.0728238 0
2.425 0.0728238 0
2.45 0.0728238 0
2.475 0.0728238 0
2.5 0.0728238 0
0.0248863 0.173523 0
0.049879 0.172417 0
0.0748962 0.171464 0
0.0999572 0.17049 0
0.124962 0.169659 0
0.150059 0.168747 0
0.175161 0.167811 0
0.200233 0.166849 0
0.225466 0.16558 0
0.250661 0.164178 0
0.275774 0.162568 0
0.301045 0.160443 0
0.326382 0.157928 0
0.351536 0.155209 0
0.376571 0.152146 0
0.401675 0.14864 0
0.426836 0.144906 0
0.451899 0.141178 0
0.4768 0.137475 0
0.501627 0.133686 0
0.526502 0.129761 0
0.551469 0.125806 0
0.576527 0.121992 0
0.601641 0.118435 0
0.626741 0.115194 0
0.651774 0.112301 0
0.676743 0.109754 0
0.701678 0.107526 0
0.726588 0.105594 0
0.751466 0.103945 0
0.776319 0.102559 0
0.801172 0.101401 0
0.826043 0.100445 0
0.850931 0.0996776 0
0.875818 0.0990878 0
0.900694 0.0986576 0
0.925559 0.0983591 0
0.950424 0.0981599 0
0.975302 0.0980307 0
1.0002 0.0979484 0
1.02513 0.0978969 0
1.05008 0.0978654 0
1.07504 0.0978467 0
1.10002 0.0978359 0
1.12501 0.0978299 0
1.15001 0.0978268 0
1.175 0.0978252 0
1.2 0.0978244 0
1.225 0.0978241 0
1.25 0.0978239 0
1.275 0.0978238 0
1.3 0.0978238 0
1.325 0.0978238 0
1.35 0.0978238 0
1.375 0.0978238 0
1.4 0.0978238 0
1.425 0.0978238 0
1.45 0.0978238 0
1.475 0.0978238 0
1.5 0.0978238 0
1.525 0.0978238 0
1.55 0.0978238 0
1.575 0.0978238 0
1.6 0.0978238 0
1.625 0.0978238 0
1.65 0.0978238 0
1.675 0.0978238 0
1.7 0.0978238 0
1.725 0.0978238 0
1.75 0.0978238 0
1.775 0.0978238 0
1.8 0.0978238 0
1.825 0.0978238 0
1.85 0.0978238 0
1.875 0.0978238 0
1.9 0.0978238 0
1.925 0.0978238 0
1.95 0.0978238 0
1.975 0.0978238 0
2 0.0978238 0
2.025 0.0978238 0
2.05 0.0978238 0
2.075 0.0978238 0
2.1 0.0978238 0
2.125 0.0978238 0
2.15 0.0978238 0
2.175 0.0978238 0
2.2 0.0978238 0
2.225 0.0978238 0
2.25 0.0978238 0
2.275 0.0978238 0
2.3 0.0978238 0
2.325 0.0978238 0
2.35 0.0978238 0
2.375 0.0978238 0
2.4 0.0978238 0
2.425 0.0978238 0
2.45 0.0978238 0
2.475 0.0978238 0
2.5 0.0978238 0
</DataArray>
</Points>
<PointData>
<DataArray NumberOfComponents='1' type='Int32' Name='Particle Type' format='ascii'>
0
0
0
0
0
0
0
0
0
0
0
0
0
0
0
0
0
0
0
0
0
0
1
1
1
1
1
1
1
1
1
1
1
1
1
1
1
1
1
1
1
1
1
1
1
1
1
1
1
1
1
1
1
1
1
1
1
1
1
1
1
1
1
1
1
1
1
1
1
1
1
1
1
1
1
1
1
1
1
1
1
1
1
1
1
1
1
1
1
1
1
1
1
1
1
1
1
1
1
1
1
1
1
1
1
1
1
1
1
1
1
1
1
1
1
1
1
1
1
1
1
1
1
1
1
1
1
1
1
1
1
1
1
1
1
1
1
1
1
1
1
1
1
1
1
1
1
1
1
1
1
1
1
1
1
1
1
1
1
1
1
1
1
1
1
1
1
1
1
1
1
1
1
1
1
1
1
1
1
1
1
1
1
1
1
1
1
1
1
1
1
1
1
1
1
1
1
1
1
1
1
1
1
1
1
1
1
1
1
1
1
1
1
1
1
1
1
1
1
1
1
1
1
1
1
1
1
1
1
1
1
1
1
1
1
1
1
1
1
1
1
1
1
1
1
1
1
1
1
1
1
1
1
1
1
1
1
1
1
1
1
1
1
1
1
1
1
1
1
1
1
1
1
1
1
1
1
1
1
1
1
1
1
1
1
1
1
1
1
1
1
1
1
1
1
1
1
1
1
1
1
1
1
1
1
1
1
1
1
1
1
1
1
1
1
1
1
1
1
1
1
1
1
1
1
1
1
1
1
1
1
1
1
1
1
1
1
1
1
1
1
1
1
1
1
1
1
1
1
1
1
1
1
1
1
1
1
1
1
1
1
1
1
1
1
1
1
1
1
1
1
1
1
1
1
1
1
1
1
1
1
1
1
1
1
1
1
1
1
1
1
1
1
1
1
1
1
1
1
1
1
1
1
1
1
1
1
1
1
1
1
1
1
1
1
1
1
1
1
1
1
1
1
1
1
1
1
1
1
1
1
1
1
1
1
1
1
1
1
1
1
1
1
1
1
1
1
1
1
1
1
1
1
1
1
1
1
1
1
1
1
1
1
1
1
1
1
1
1
1
1
1
1
1
1
1
1
1
1
1
1
1
1
1
1
1
1
1
1
1
1
1
1
1
1
1
1
1
1
1
1
1
1
1
1
1
1
1
1
1
1
1
1
1
1
1
1
1
1
1
1
1
1
1
1
1
1
1
1
1
1
1
1
1
1
1
1
1
1
1
1
1
1
1
1
1
1
1
1
1
1
1
1
1
1
1
1
1
1
1
1
1
1
1
1
1
1
1
1
1
1
1
1
1
1
1
1
1
1
1
1
1
1
1
1
1
1
1
1
1
1
1
1
1
1
1
1
1
1
1
1
1
1
1
1
1
1
1
1
1
1
1
1
1
1
1
1
1
1
1
1
1
1
1
1
1
1
1
1
1
1
1
1
1
1
1
1
1
1
1
1
1
1
1
1
1
1
1
1
1
1
1
1
1
1
1
1
1
1
1
1
1
1
1
1
1
1
1
1
1
1
1
1
1
1
1
1
1
1
1
1
1
1
1
1
1
1
1
1
1
1
1
1
1
1
1
1
1
1
1
1
1
1
1
1
1
1
1
1
1
1
1
1
1
1
1
1
1
1
1
1
1
1
1
1
1
1
1
1
1
1
1
1
1
1
1
1
1
1
1
1
1
1
1
1
1
1
1
1
1
1
1
1
1
1
1
1
1
1
1
1
1
1
1
1
1
1
1
1
1
1
1
1
1
1
1
1
1
1
1
1
1
1
1
1
1
1
1
1
1
1
1
1
1
1
1
1
1
1
1
1
1
1
1
1
1
1
1
</DataArray>
<DataArray NumberOfComponents='3' type='Float64' Name='Velocity' format='ascii'>
0 0 0
0 0 0
0 0 0
0 0 0
0 0 0
0 0 0
0 0 0
0 0 0
0 0 0
0 0 0
0 0 0
0 0 0
0 0 0
0 0 0
0 0 0
0 0 0
0 0 0
0 0 0
0 0 0
0 0 0
0 0 0
0 0 0
0.00349996 -0.0164883 0
0.00300974 -0.027152 0
0.00343595 -0.0360682 0
0.0025931 -0.0417494 0
0.00204795 -0.0461611 0
0.00296257 -0.0493129 0
0.000885176 -0.0540736 0
-0.000263453 -0.0572546 0
-0.000520858 -0.0622416 0
-0.00205292 -0.0696745 0
-0.00189821 -0.0769357 0
0.000127092 -0.0863288 0
0.00165165 -0.0977432 0
0.00264685 -0.107515 0
0.00398847 -0.115448 0
0.00527041 -0.12394 0
0.00572467 -0.133187 0
0.00537933 -0.14148 0
0.00481747 -0.148078 0
0.00449338 -0.153739 0
0.00447121 -0.15928 0
0.00455199 -0.164666 0
0.00449435 -0.169303 0
0.0041636 -0.1727 0
0.00357051 -0.174786 0
0.00282676 -0.175829 0
0.00207079 -0.176204 0
0.00140971 -0.176239 0
0.000896163 -0.176145 0
0.000534611 -0.17603 0
0.000300665 -0.175938 0
0.000160086 -0.175877 0
8.10018e-05 -0.17584 0
3.90819e-05 -0.175819 0
1.80344e-05 -0.175809 0
7.98064e-06 -0.175804 0
3.39485e-06 -0.175802 0
1.39117e-06 -0.175801 0
5.5024e-07 -0.1758 0
2.10422e-07 -0.1758 0
7.79256e-08 -0.1758 0
2.7986e-08 -0.1758 0
9.75988e-09 -0.1758 0
3.30909e-09 -0.1758 0
1.09197e-09 -0.1758 0
3.51118e-10 -0.1758 0
1.10111e-10 -0.1758 0
3.36835e-11 -0.1758 0
1.00846e-11 -0.1758 0
2.96707e-12 -0.1758 0
8.37488e-13 -0.1758 0
2.19955e-13 -0.1758 0
3.50178e-14 -0.1758 0
3.83438e-15 -0.1758 0
2.77955e-16 -0.1758 0
1.07475e-17 -0.1758 0
6.32685e-19 -0.1758 0
-3.44174e-19 -0.1758 0
-2.05264e-18 -0.1758 0
-6.34864e-18 -0.1758 0
-9.69589e-18 -0.1758 0
-1.45814e-17 -0.1758 0
-2.44714e-17 -0.1758 0
-4.52248e-18 -0.1758 0
1.17434e-19 -0.1758 0
7.15794e-18 -0.1758 0
3.86513e-17 -0.1758 0
3.94586e-17 -0.1758 0
-4.92507e-17 -0.1758 0
-1.04741e-16 -0.1758 0
7.32936e-18 -0.1758 0
6.98187e-17 -0.1758 0
2.47381e-17 -0.1758 0
3.58023e-17 -0.1758 0
1.89629e-17 -0.1758 0
-7.75595e-17 -0.1758 0
-8.13432e-17 -0.1758 0
3.78115e-17 -0.1758 0
1.27312e-16 -0.1758 0
1.93137e-16 -0.1758 0
2.06468e-16 -0.1758 0
1.14594e-16 -0.1758 0
-4.62488e-17 -0.1758 0
-1.79894e-16 -0.1758 0
-1.69538e-16 -0.1758 0
-2.49442e-17 -0.1758 0
-0.000709998 -0.00228774 0
-0.000932159 -0.00359184 0
-0.000521026 -0.00502274 0
-0.000315138 -0.00537383 0
-0.000529415 -0.00490506 0
6.88631e-05 -0.00547746 0
-0.00091053 -0.00339391 0
-0.00199564 -0.00529852 0
-0.00090633 -0.00735925 0
-0.000491477 -0.0072513 0
-0.000710476 -0.00957435 0
0.000419322 -0.0114143 0
0.00215027 -0.0108899 0
0.00398882 -0.0135002 0
0.00466627 -0.0220421 0
0.00449738 -0.0307211 0
0.00452818 -0.036908 0
0.00336928 -0.0405594 0
0.0024942 -0.0447294 0
0.00202683 -0.0482433 0
0.00037853 -0.0527911 0
-0.000879733 -0.0573167 0
-0.00146525 -0.0629685 0
-0.00198152 -0.0703492 0
-0.00133729 -0.0782305 0
0.000322339 -0.0874315 0
0.00175533 -0.0979154 0
0.00283477 -0.107637 0
0.00396692 -0.116162 0
0.00495267 -0.124737 0
0.00536374 -0.133523 0
0.005201 -0.141461 0
0.00483363 -0.148048 0
0.00458898 -0.153807 0
0.00453953 -0.15933 0
0.00455485 -0.16457 0
0.00445128 -0.169036 0
0.00411443 -0.172323 0
0.00354516 -0.174384 0
0.00283429 -0.175466 0
0.00210369 -0.175916 0
0.00145396 -0.176031 0
0.000939504 -0.176006 0
0.000570004 -0.175944 0
0.00032607 -0.175889 0
0.000176565 -0.175849 0
9.08281e-05 -0.175826 0
4.4532e-05 -0.175813 0
2.08705e-05 -0.175806 0
9.37443e-06 -0.175803 0
4.04515e-06 -0.175801 0
1.68047e-06 -0.1758 0
6.7339e-07 -0.1758 0
2.60739e-07 -0.1758 0
9.77103e-08 -0.1758 0
3.54896e-08 -0.1758 0
1.25103e-08 -0.1758 0
4.28517e-09 -0.1758 0
1.42798e-09 -0.1758 0
4.63413e-10 -0.1758 0
1.46615e-10 -0.1758 0
4.52327e-11 -0.1758 0
1.36291e-11 -0.1758 0
4.00626e-12 -0.1758 0
1.16583e-12 -0.1758 0
3.18914e-13 -0.1758 0
6.3596e-14 -0.1758 0
6.94922e-15 -0.1758 0
4.70227e-16 -0.1758 0
1.56157e-17 -0.1758 0
4.59885e-19 -0.1758 0
-1.89666e-18 -0.1758 0
-7.23079e-18 -0.1758 0
-1.88264e-17 -0.1758 0
-1.90807e-17 -0.1758 0
-5.4197e-18 -0.1758 0
-7.44335e-18 -0.1758 0
6.19684e-18 -0.1758 0
9.44717e-18 -0.1758 0
8.2844e-18 -0.1758 0
4.22291e-17 -0.1758 0
4.75388e-17 -0.1758 0
-3.37705e-17 -0.1758 0
-1.07619e-16 -0.1758 0
-2.12874e-17 -0.1758 0
5.4549e-17 -0.1758 0
1.44701e-17 -0.1758 0
-1.3026e-17 -0.1758 0
-1.65806e-17 -0.1758 0
-5.91403e-17 -0.1758 0
-1.12088e-16 -0.1758 0
-1.4293e-17 -0.1758 0
1.35546e-16 -0.1758 0
1.0372e-16 -0.1758 0
7.65483e-17 -0.1758 0
-8.19833e-17 -0.1758 0
-1.0704e-16 -0.1758 0
1.54234e-16 -0.1758 0
6.08979e-17 -0.1758 0
-1.36306e-16 -0.1758 0
-0.001037 -0.00305484 0
-0.00144221 -0.00474297 0
-0.00138118 -0.00635916 0
-0.00154559 -0.00740487 0
-0.00224012 -0.00816144 0
-0.00134931 -0.0114621 0
-0.00148035 -0.00918981 0
-0.00197067 -0.0118155 0
-0.000587349 -0.0140573 0
1.16429e-05 -0.0125818 0
-5.20622e-05 -0.0153939 0
0.00140185 -0.0185603 0
0.00272899 -0.0184839 0
0.00422355 -0.0199008 0
0.00502704 -0.027498 0
0.00509752 -0.032521 0
0.00481813 -0.0370439 0
0.00385461 -0.0408361 0
0.00322562 -0.0443467 0
0.0023105 -0.0478748 0
0.000761229 -0.0522964 0
-0.000802234 -0.0573885 0
-0.00187797 -0.0634312 0
-0.00213031 -0.0709591 0
-0.00125412 -0.0791673 0
0.000301725 -0.088075 0
0.00178945 -0.0979079 0
0.0029979 -0.107658 0
0.00400982 -0.116706 0
0.00474368 -0.125475 0
0.0050543 -0.134014 0
0.00498904 -0.141681 0
0.00477555 -0.148181 0
0.00462278 -0.153926 0
0.00458635 -0.159365 0
0.00457669 -0.164444 0
0.00445055 -0.168749 0
0.0041099 -0.171943 0
0.00355193 -0.173993 0
0.00285644 -0.175125 0
0.00213656 -0.175653 0
0.00148977 -0.175846 0
0.000971766 -0.175886 0
0.000595319 -0.175872 0
0.000343877 -0.175847 0
0.000187999 -0.175827 0
9.76167e-05 -0.175815 0
4.82934e-05 -0.175807 0
2.28295e-05 -0.175803 0
1.03391e-05 -0.175801 0
4.4964e-06 -0.175801 0
1.88179e-06 -0.1758 0
7.59355e-07 -0.1758 0
2.9597e-07 -0.1758 0
1.11604e-07 -0.1758 0
4.07741e-08 -0.1758 0
1.44526e-08 -0.1758 0
4.9764e-09 -0.1758 0
1.66631e-09 -0.1758 0
5.43275e-10 -0.1758 0
1.72578e-10 -0.1758 0
5.35077e-11 -0.1758 0
1.61746e-11 -0.1758 0
4.78434e-12 -0.1758 0
1.38715e-12 -0.1758 0
3.92642e-13 -0.1758 0
8.41767e-14 -0.1758 0
9.38706e-15 -0.1758 0
6.0822e-16 -0.1758 0
1.30718e-17 -0.1758 0
-5.24817e-19 -0.1758 0
-4.19765e-18 -0.1758 0
-1.1442e-17 -0.1758 0
-1.49045e-17 -0.1758 0
-6.98028e-18 -0.1758 0
6.44804e-18 -0.1758 0
1.44572e-17 -0.1758 0
2.25933e-17 -0.1758 0
1.25474e-17 -0.1758 0
7.2545e-18 -0.1758 0
2.51529e-17 -0.1758 0
9.18804e-18 -0.1758 0
-2.33756e-17 -0.1758 0
-6.24744e-17 -0.1758 0
-1.95375e-17 -0.1758 0
1.93309e-18 -0.1758 0
-1.6126e-17 -0.1758 0
-5.45261e-17 -0.1758 0
-1.12553e-16 -0.1758 0
-8.60585e-17 -0.1758 0
-4.01744e-17 -0.1758 0
9.03991e-17 -0.1758 0
4.03599e-17 -0.1758 0
-1.43151e-16 -0.1758 0
-2.37908e-16 -0.1758 0
-2.49719e-16 -0.1758 0
2.27234e-16 -0.1758 0
5.19778e-16 -0.1758 0
2.90186e-16 -0.1758 0
-2.18459e-16 -0.1758 0
-0.000922935 -0.00289495 0
-0.00159465 -0.00383654 0
-0.00182574 -0.00787582 0
-0.00216114 -0.0104221 0
-0.00258892 -0.0111918 0
-0.00216392 -0.0173064 0
-0.00186699 -0.0162592 0
-0.00161469 -0.0191701 0
-0.000827522 -0.0207144 0
-2.49965e-05 -0.0181798 0
0.000262704 -0.0210376 0
0.00146805 -0.0231699 0
0.00242442 -0.0235269 0
0.00299588 -0.0249788 0
0.00381883 -0.0307613 0
0.00416787 -0.0348293 0
0.00379091 -0.0386134 0
0.00368356 -0.0408481 0
0.00373959 -0.0452748 0
0.00306302 -0.0492033 0
0.00182963 -0.0529221 0
-8.29855e-06 -0.0573842 0
-0.00163671 -0.0631287 0
-0.00212819 -0.0708895 0
-0.00146537 -0.0795336 0
-8.83088e-05 -0.0884578 0
0.00154547 -0.0980608 0
0.00302452 -0.107883 0
0.00408086 -0.117257 0
0.00465875 -0.126188 0
0.00484583 -0.134611 0
0.00478872 -0.142085 0
0.00465483 -0.148461 0
0.00457547 -0.154116 0
0.00458125 -0.159424 0
0.00459228 -0.164329 0
0.00447801 -0.168476 0
0.00414538 -0.171578 0
0.00359159 -0.173617 0
0.00289592 -0.174796 0
0.00217207 -0.175398 0
0.00151897 -0.175667 0
0.000993887 -0.175771 0
0.000610864 -0.175802 0
0.000354059 -0.175808 0
0.000194242 -0.175806 0
0.000101214 -0.175804 0
5.02491e-05 -0.175802 0
2.38362e-05 -0.175801 0
1.08314e-05 -0.1758 0
4.72585e-06 -0.1758 0
1.98401e-06 -0.1758 0
8.02998e-07 -0.1758 0
3.13873e-07 -0.1758 0
1.18675e-07 -0.1758 0
4.34686e-08 -0.1758 0
1.54452e-08 -0.1758 0
5.33014e-09 -0.1758 0
1.78879e-09 -0.1758 0
5.84325e-10 -0.1758 0
1.85963e-10 -0.1758 0
5.77399e-11 -0.1758 0
1.7528e-11 -0.1758 0
5.21374e-12 -0.1758 0
1.49386e-12 -0.1758 0
4.32076e-13 -0.1758 0
9.44081e-14 -0.1758 0
1.06538e-14 -0.1758 0
6.80019e-16 -0.1758 0
7.64205e-18 -0.1758 0
-1.17692e-18 -0.1758 0
-1.79832e-18 -0.1758 0
-7.5317e-18 -0.1758 0
-6.54143e-18 -0.1758 0
-4.15548e-18 -0.1758 0
-4.58038e-18 -0.1758 0
8.34689e-18 -0.1758 0
8.8731e-18 -0.1758 0
-1.31701e-18 -0.1758 0
2.20035e-17 -0.1758 0
2.5859e-17 -0.1758 0
-4.68693e-17 -0.1758 0
-7.94748e-17 -0.1758 0
-2.30809e-17 -0.1758 0
4.69712e-17 -0.1758 0
4.41509e-17 -0.1758 0
6.80246e-18 -0.1758 0
-9.11774e-17 -0.1758 0
-1.6406e-16 -0.1758 0
-1.02618e-17 -0.1758 0
1.16174e-16 -0.1758 0
1.56897e-16 -0.1758 0
-1.42954e-17 -0.1758 0
-1.23044e-16 -0.1758 0
-9.88807e-17 -0.1758 0
1.04289e-16 -0.1758 0
3.07764e-16 -0.1758 0
-1.94202e-16 -0.1758 0
-1.93585e-16 -0.1758 0
1.461e-16 -0.1758 0
-0.000995238 -0.00361075 0
-0.00169597 -0.00535418 0
-0.00252004 -0.00854053 0
-0.00279356 -0.00958691 0
-0.00172444 -0.0111078 0
-0.0022799 -0.0169545 0
-0.00205028 -0.0169532 0
-0.00135196 -0.0204419 0
-0.00214271 -0.0217085 0
-0.00100928 -0.0194231 0
0.00117927 -0.0229732 0
0.00176499 -0.0254749 0
0.00227211 -0.0251073 0
0.00268919 -0.0279958 0
0.00337147 -0.0315835 0
0.00348931 -0.0351813 0
0.00336895 -0.0372282 0
0.00414012 -0.0417066 0
0.00419873 -0.0474419 0
0.00365721 -0.0506917 0
0.00246449 -0.0536662 0
0.000263628 -0.0570129 0
-0.0015039 -0.0620858 0
-0.00200738 -0.070053 0
-0.00163088 -0.0792774 0
-0.000534797 -0.0886981 0
0.00116625 -0.0985441 0
0.00289267 -0.108466 0
0.00408612 -0.117929 0
0.00464837 -0.126889 0
0.00476802 -0.135223 0
0.00465957 -0.142552 0
0.00450799 -0.148807 0
0.00444902 -0.154357 0
0.00450832 -0.159528 0
0.00458534 -0.164261 0
0.00452391 -0.168247 0
0.00421663 -0.171248 0
0.0036624 -0.173263 0
0.00295144 -0.17448 0
0.00220871 -0.175149 0
0.00153989 -0.175492 0
0.00100434 -0.175657 0
0.000615419 -0.175734 0
0.00035574 -0.17577 0
0.00019472 -0.175786 0
0.000101273 -0.175793 0
5.02029e-05 -0.175797 0
2.37863e-05 -0.175799 0
1.07989e-05 -0.175799 0
4.70852e-06 -0.1758 0
1.97577e-06 -0.1758 0
7.99389e-07 -0.1758 0
3.12392e-07 -0.1758 0
1.181e-07 -0.1758 0
4.32556e-08 -0.1758 0
1.53694e-08 -0.1758 0
5.30434e-09 -0.1758 0
1.78014e-09 -0.1758 0
5.81575e-10 -0.1758 0
1.85175e-10 -0.1758 0
5.75106e-11 -0.1758 0
1.74313e-11 -0.1758 0
5.18534e-12 -0.1758 0
1.50017e-12 -0.1758 0
4.2797e-13 -0.1758 0
9.38068e-14 -0.1758 0
1.06043e-14 -0.1758 0
6.85807e-16 -0.1758 0
8.6504e-18 -0.1758 0
-4.73256e-19 -0.1758 0
1.93475e-18 -0.1758 0
-3.15094e-19 -0.1758 0
-1.0158e-17 -0.1758 0
-1.46129e-17 -0.1758 0
-1.0637e-17 -0.1758 0
-1.04704e-17 -0.1758 0
-2.06219e-17 -0.1758 0
-3.70976e-18 -0.1758 0
2.30116e-17 -0.1758 0
5.39344e-18 -0.1758 0
-6.78833e-17 -0.1758 0
-9.56144e-17 -0.1758 0
-5.32755e-18 -0.1758 0
8.09626e-17 -0.1758 0
9.0365e-17 -0.1758 0
-8.39141e-18 -0.1758 0
-1.08202e-16 -0.1758 0
-3.45825e-17 -0.1758 0
9.43533e-17 -0.1758 0
4.598e-17 -0.1758 0
-1.16821e-16 -0.1758 0
7.62516e-17 -0.1758 0
2.57112e-16 -0.1758 0
9.7766e-17 -0.1758 0
5.21898e-17 -0.1758 0
-1.99824e-16 -0.1758 0
-4.32355e-16 -0.1758 0
-1.89208e-16 -0.1758 0
3.6097e-16 -0.1758 0
-0.00148644 -0.00272669 0
-0.00207119 -0.00533905 0
-0.0028089 -0.0072257 0
-0.00265584 -0.00980054 0
-0.00251839 -0.0126099 0
-0.00416341 -0.014433 0
-0.00230456 -0.015194 0
-0.000475144 -0.0189874 0
-0.00233678 -0.0206512 0
-0.00178564 -0.0206255 0
0.00132136 -0.0232535 0
0.00212047 -0.0253341 0
0.00252885 -0.0265933 0
0.00379447 -0.0310162 0
0.0041736 -0.0345641 0
0.0034516 -0.0367297 0
0.00344592 -0.0390991 0
0.00450479 -0.0442497 0
0.00526006 -0.0482828 0
0.00511672 -0.0508944 0
0.00283652 -0.0533341 0
-0.000391849 -0.0557948 0
-0.00210578 -0.0607147 0
-0.00224428 -0.0689577 0
-0.00175359 -0.0787112 0
-0.000678903 -0.0889083 0
0.000993532 -0.099293 0
0.00271456 -0.109319 0
0.00397014 -0.118712 0
0.00463672 -0.127581 0
0.00479783 -0.13578 0
0.00462143 -0.142959 0
0.00436436 -0.149115 0
0.00426398 -0.154605 0
0.00437713 -0.159687 0
0.0045575 -0.164274 0
0.00458466 -0.168096 0
0.00431697 -0.170977 0
0.00375662 -0.172944 0
0.00301597 -0.174179 0
0.00224116 -0.174907 0
0.00154911 -0.175317 0
0.0010012 -0.175543 0
0.000608032 -0.175665 0
0.000348519 -0.17573 0
0.000189292 -0.175765 0
9.77595e-05 -0.175783 0
4.81553e-05 -0.175792 0