<?xml version='1.0' encoding='UTF-8'?>
<VTKFile byte_order='LittleEndian' version='0.1' type = 'UnstructuredGrid'>
<UnstructuredGrid>
<FieldData>
<DataArray type='Float64' Name='Time' NumberOfComponents='1' NumberOfTuples='1' format='ascii'>
0.84
</DataArray>
</FieldData>
<Piece NumberOfCells='808' NumberOfPoints='808'>
<Points>
<DataArray NumberOfComponents='3' type='Float64' Name='position' format='ascii'>
0 0 0
0 0.025 0
0 0.05 0
0 0.075 0
0 0.1 0
0 0.125 0
0 0.15 0
0 0.175 0
0.025 0 0
0.05 0 0
0.075 0 0
0.1 0 0
0.125 0 0
0.15 0 0
0.175 0 0
0.2 0 0
0.225 0 0
0.25 0 0
0.275 0 0
0.3 0 0
0.325 0 0
0.35 0 0
0.376818 -0.0126523 0
0.401862 -0.0195547 0
0.42687 -0.0251099 0
0.451853 -0.0299649 0
0.4768 -0.0344364 0
0.501735 -0.0386334 0
0.526745 -0.042583 0
0.551755 -0.046359 0
0.576779 -0.0498759 0
0.601829 -0.0531168 0
0.626827 -0.0560905 0
0.65176 -0.0587149 0
0.676671 -0.0609861 0
0.701561 -0.0629823 0
0.726417 -0.0647173 0
0.751253 -0.066154 0
0.776098 -0.0673016 0
0.800963 -0.0682194 0
0.825839 -0.0689555 0
0.850717 -0.069522 0
0.875589 -0.0699193 0
0.900462 -0.0701633 0
0.925342 -0.0702892 0
0.950239 -0.0703391 0
0.975157 -0.0703486 0
1.0001 -0.0703417 0
1.02506 -0.0703311 0
1.05003 -0.0703221 0
1.07502 -0.0703159 0
1.10001 -0.0703122 0
1.125 -0.0703102 0
1.15 -0.0703091 0
1.175 -0.0703086 0
1.2 -0.0703084 0
1.225 -0.0703083 0
1.25 -0.0703082 0
1.275 -0.0703082 0
1.3 -0.0703082 0
1.325 -0.0703082 0
1.35 -0.0703082 0
1.375 -0.0703082 0
1.4 -0.0703082 0
1.425 -0.0703082 0
1.45 -0.0703082 0
1.475 -0.0703082 0
1.5 -0.0703082 0
1.525 -0.0703082 0
1.55 -0.0703082 0
1.575 -0.0703082 0
1.6 -0.0703082 0
1.625 -0.0703082 0
1.65 -0.0703082 0
1.675 -0.0703082 0
1.7 -0.0703082 0
1.725 -0.0703082 0
1.75 -0.0703082 0
1.775 -0.0703082 0
1.8 -0.0703082 0
1.825 -0.0703082 0
1.85 -0.0703082 0
1.875 -0.0703082 0
1.9 -0.0703082 0
1.925 -0.0703082 0
1.95 -0.0703082 0
1.975 -0.0703082 0
2 -0.0703082 0
2.025 -0.0703082 0
2.05 -0.0703082 0
2.075 -0.0703082 0
2.1 -0.0703082 0
2.125 -0.0703082 0
2.15 -0.0703082 0
2.175 -0.0703082 0
2.2 -0.0703082 0
2.225 -0.0703082 0
2.25 -0.0703082 0
2.275 -0.0703082 0
2.3 -0.0703082 0
2.325 -0.0703082 0
2.35 -0.0703082 0
2.375 -0.0703082 0
2.4 -0.0703082 0
2.425 -0.0703082 0
2.45 -0.0703082 0
2.475 -0.0703082 0
2.5 -0.0703082 0
0.0249152 0.0245701 0
0.0498859 0.024303 0
0.0748639 0.0240838 0
0.0998592 0.023855 0
0.124862 0.0236441 0
0.149861 0.0234293 0
0.174893 0.0231697 0
0.199915 0.0229605 0
0.224909 0.022677 0
0.249934 0.0222803 0
0.274997 0.0217835 0
0.300117 0.0209721 0
0.325446 0.0194389 0
0.351337 0.0162641 0
0.377005 0.0102379 0
0.401962 0.00454623 0
0.426924 -0.00058952 0
0.45188 -0.00528088 0
0.47682 -0.00965631 0
0.501769 -0.0137982 0
0.526762 -0.0177178 0
0.551772 -0.0214453 0
0.576794 -0.0249352 0
0.601819 -0.0281545 0
0.626806 -0.0310916 0
0.651747 -0.0336992 0
0.67666 -0.0359698 0
0.70155 -0.0379494 0
0.726413 -0.0396567 0
0.75126 -0.0410788 0
0.77611 -0.0422288 0
0.800973 -0.0431527 0
0.825845 -0.04389 0
0.850719 -0.0444552 0
0.875592 -0.0448542 0
0.900466 -0.0451052 0
0.925347 -0.045242 0
0.950245 -0.0453039 0
0.975163 -0.0453244 0
1.0001 -0.0453261 0
1.02506 -0.0453217 0
1.05003 -0.0453168 0
1.07502 -0.0453131 0
1.10001 -0.0453108 0
1.125 -0.0453095 0
1.15 -0.0453088 0
1.175 -0.0453085 0
1.2 -0.0453083 0
1.225 -0.0453082 0
1.25 -0.0453082 0
1.275 -0.0453082 0
1.3 -0.0453082 0
1.325 -0.0453082 0
1.35 -0.0453082 0
1.375 -0.0453082 0
1.4 -0.0453082 0
1.425 -0.0453082 0
1.45 -0.0453082 0
1.475 -0.0453082 0
1.5 -0.0453082 0
1.525 -0.0453082 0
1.55 -0.0453082 0
1.575 -0.0453082 0
1.6 -0.0453082 0
1.625 -0.0453082 0
1.65 -0.0453082 0
1.675 -0.0453082 0
1.7 -0.0453082 0
1.725 -0.0453082 0
1.75 -0.0453082 0
1.775 -0.0453082 0
1.8 -0.0453082 0
1.825 -0.0453082 0
1.85 -0.0453082 0
1.875 -0.0453082 0
1.9 -0.0453082 0
1.925 -0.0453082 0
1.95 -0.0453082 0
1.975 -0.0453082 0
2 -0.0453082 0
2.025 -0.0453082 0
2.05 -0.0453082 0
2.075 -0.0453082 0
2.1 -0.0453082 0
2.125 -0.0453082 0
2.15 -0.0453082 0
2.175 -0.0453082 0
2.2 -0.0453082 0
2.225 -0.0453082 0
2.25 -0.0453082 0
2.275 -0.0453082 0
2.3 -0.0453082 0
2.325 -0.0453082 0
2.35 -0.0453082 0
2.375 -0.0453082 0
2.4 -0.0453082 0
2.425 -0.0453082 0
2.45 -0.0453082 0
2.475 -0.0453082 0
2.5 -0.0453082 0
0.0248947 0.0493209 0
0.0498544 0.0488564 0
0.0748322 0.0484763 0
0.0998349 0.0481019 0
0.124849 0.0477744 0
0.14985 0.0474479 0
0.174883 0.0470223 0
0.199916 0.0466514 0
0.224937 0.0461448 0
0.250007 0.0454478 0
0.275148 0.0445992 0
0.300381 0.0433124 0
0.325818 0.0412371 0
0.351479 0.037953 0
0.376941 0.0333693 0
0.402007 0.0285196 0
0.426972 0.0238384 0
0.451904 0.0193681 0
0.476828 0.015113 0
0.501772 0.0110486 0
0.526753 0.00717218 0
0.551766 0.00348207 0
0.576793 1.56286e-05 0
0.601811 -0.00318368 0
0.626795 -0.00609732 0
0.65174 -0.00869525 0
0.676653 -0.0109637 0
0.701542 -0.0129277 0
0.72641 -0.0146096 0
0.751266 -0.0160147 0
0.776121 -0.0171609 0
0.800984 -0.0180864 0
0.825854 -0.0188245 0
0.850725 -0.0193902 0
0.875597 -0.0197928 0
0.900471 -0.0200518 0
0.925353 -0.0201995 0
0.950251 -0.0202728 0
0.975168 -0.0203034 0
1.00011 -0.0203129 0
1.02506 -0.0203139 0
1.05004 -0.0203124 0
1.07502 -0.0203108 0
1.10001 -0.0203096 0
1.125 -0.0203089 0
1.15 -0.0203085 0
1.175 -0.0203083 0
1.2 -0.0203083 0
1.225 -0.0203082 0
1.25 -0.0203082 0
1.275 -0.0203082 0
1.3 -0.0203082 0
1.325 -0.0203082 0
1.35 -0.0203082 0
1.375 -0.0203082 0
1.4 -0.0203082 0
1.425 -0.0203082 0
1.45 -0.0203082 0
1.475 -0.0203082 0
1.5 -0.0203082 0
1.525 -0.0203082 0
1.55 -0.0203082 0
1.575 -0.0203082 0
1.6 -0.0203082 0
1.625 -0.0203082 0
1.65 -0.0203082 0
1.675 -0.0203082 0
1.7 -0.0203082 0
1.725 -0.0203082 0
1.75 -0.0203082 0
1.775 -0.0203082 0
1.8 -0.0203082 0
1.825 -0.0203082 0
1.85 -0.0203082 0
1.875 -0.0203082 0
1.9 -0.0203082 0
1.925 -0.0203082 0
1.95 -0.0203082 0
1.975 -0.0203082 0
2 -0.0203082 0
2.025 -0.0203082 0
2.05 -0.0203082 0
2.075 -0.0203082 0
2.1 -0.0203082 0
2.125 -0.0203082 0
2.15 -0.0203082 0
2.175 -0.0203082 0
2.2 -0.0203082 0
2.225 -0.0203082 0
2.25 -0.0203082 0
2.275 -0.0203082 0
2.3 -0.0203082 0
2.325 -0.0203082 0
2.35 -0.0203082 0
2.375 -0.0203082 0
2.4 -0.0203082 0
2.425 -0.0203082 0
2.45 -0.0203082 0
2.475 -0.0203082 0
2.5 -0.0203082 0
0.0248933 0.0741115 0
0.049857 0.0734761 0
0.0748413 0.0729893 0
0.0998503 0.0724702 0
0.124869 0.0720229 0
0.149892 0.0716108 0
0.174929 0.071057 0
0.199979 0.0705263 0
0.225051 0.0698064 0
0.250159 0.0688501 0
0.275341 0.0677198 0
0.300626 0.0661042 0
0.326034 0.0637855 0
0.351511 0.060667 0
0.37685 0.0567921 0
0.401974 0.0525525 0
0.426973 0.0482297 0
0.4519 0.0439851 0
0.476811 0.0398982 0
0.50174 0.0359219 0
0.52671 0.0320795 0
0.551727 0.0284014 0
0.576766 0.0249428 0
0.601793 0.0217599 0
0.626787 0.0188676 0
0.65174 0.0162846 0
0.676653 0.0140276 0
0.701539 0.0120816 0
0.726407 0.0104229 0
0.751268 0.00903616 0
0.776129 0.0078987 0
0.800994 0.00697584 0
0.825863 0.00623843 0
0.850734 0.00567181 0
0.875605 0.00526524 0
0.900478 0.00499862 0
0.925359 0.00484065 0
0.950256 0.00475658 0
0.975172 0.00471656 0
1.00011 0.00469969 0
1.02507 0.00469354 0
1.05004 0.00469173 0
1.07502 0.00469142 0
1.10001 0.0046915 0
1.12501 0.00469163 0
1.15 0.00469171 0
1.175 0.00469176 0
1.2 0.00469178 0
1.225 0.00469179 0
1.25 0.0046918 0
1.275 0.0046918 0
1.3 0.0046918 0
1.325 0.0046918 0
1.35 0.0046918 0
1.375 0.0046918 0
1.4 0.0046918 0
1.425 0.0046918 0
1.45 0.0046918 0
1.475 0.0046918 0
1.5 0.0046918 0
1.525 0.0046918 0
1.55 0.0046918 0
1.575 0.0046918 0
1.6 0.0046918 0
1.625 0.0046918 0
1.65 0.0046918 0
1.675 0.0046918 0
1.7 0.0046918 0
1.725 0.0046918 0
1.75 0.0046918 0
1.775 0.0046918 0
1.8 0.0046918 0
1.825 0.0046918 0
1.85 0.0046918 0
1.875 0.0046918 0
1.9 0.0046918 0
1.925 0.0046918 0
1.95 0.0046918 0
1.975 0.0046918 0
2 0.0046918 0
2.025 0.0046918 0
2.05 0.0046918 0
2.075 0.0046918 0
2.1 0.0046918 0
2.125 0.0046918 0
2.15 0.0046918 0
2.175 0.0046918 0
2.2 0.0046918 0
2.225 0.0046918 0
2.25 0.0046918 0
2.275 0.0046918 0
2.3 0.0046918 0
2.325 0.0046918 0
2.35 0.0046918 0
2.375 0.0046918 0
2.4 0.0046918 0
2.425 0.0046918 0
2.45 0.0046918 0
2.475 0.0046918 0
2.5 0.0046918 0
0.0249118 0.0989257 0
0.0498853 0.0981467 0
0.0748879 0.0974897 0
0.0998905 0.0968368 0
0.124903 0.0962809 0
0.149961 0.0957451 0
0.175009 0.0950883 0
0.200081 0.0944183 0
0.225213 0.0935319 0
0.250345 0.0923946 0
0.27551 0.0910599 0
0.300789 0.0892798 0
0.326136 0.0869 0
0.351484 0.0839709 0
0.376745 0.0804863 0
0.401884 0.0766419 0
0.426909 0.0726241 0
0.451849 0.0686439 0
0.476764 0.0647094 0
0.501684 0.0608076 0
0.526653 0.056991 0
0.551682 0.0533042 0
0.576731 0.049839 0
0.601768 0.0466666 0
0.626777 0.0437971 0
0.651741 0.0412404 0
0.676657 0.0390071 0
0.701539 0.0370827 0
0.726407 0.0354448 0
0.751269 0.0340751 0
0.776133 0.0329481 0
0.801001 0.0320302 0
0.825873 0.031295 0
0.850744 0.0307284 0
0.875614 0.0303188 0
0.900486 0.0300457 0
0.925365 0.0298786 0
0.950259 0.0297847 0
0.975174 0.0297358 0
1.00011 0.0297119 0
1.02507 0.0297008 0
1.05004 0.0296958 0
1.07502 0.0296935 0
1.10001 0.0296926 0
1.12501 0.0296921 0
1.15 0.0296919 0
1.175 0.0296919 0
1.2 0.0296918 0
1.225 0.0296918 0
1.25 0.0296918 0
1.275 0.0296918 0
1.3 0.0296918 0
1.325 0.0296918 0
1.35 0.0296918 0
1.375 0.0296918 0
1.4 0.0296918 0
1.425 0.0296918 0
1.45 0.0296918 0
1.475 0.0296918 0
1.5 0.0296918 0
1.525 0.0296918 0
1.55 0.0296918 0
1.575 0.0296918 0
1.6 0.0296918 0
1.625 0.0296918 0
1.65 0.0296918 0
1.675 0.0296918 0
1.7 0.0296918 0
1.725 0.0296918 0
1.75 0.0296918 0
1.775 0.0296918 0
1.8 0.0296918 0
1.825 0.0296918 0
1.85 0.0296918 0
1.875 0.0296918 0
1.9 0.0296918 0
1.925 0.0296918 0
1.95 0.0296918 0
1.975 0.0296918 0
2 0.0296918 0
2.025 0.0296918 0
2.05 0.0296918 0
2.075 0.0296918 0
2.1 0.0296918 0
2.125 0.0296918 0
2.15 0.0296918 0
2.175 0.0296918 0
2.2 0.0296918 0
2.225 0.0296918 0
2.25 0.0296918 0
2.275 0.0296918 0
2.3 0.0296918 0
2.325 0.0296918 0
2.35 0.0296918 0
2.375 0.0296918 0
2.4 0.0296918 0
2.425 0.0296918 0
2.45 0.0296918 0
2.475 0.0296918 0
2.5 0.0296918 0
0.0249412 0.123776 0
0.0499238 0.1229 0
0.074935 0.122116 0
0.0999474 0.121409 0
0.124992 0.120736 0
0.150069 0.120036 0
0.175102 0.119299 0
0.200183 0.118507 0
0.225345 0.117514 0
0.250493 0.116295 0
0.27565 0.114805 0
0.300892 0.112911 0
0.326169 0.110565 0
0.351415 0.107789 0
0.376625 0.10455 0
0.401774 0.100946 0
0.426821 0.0971721 0
0.451774 0.0933701 0
0.476678 0.0895377 0
0.501598 0.0856997 0
0.526594 0.0818921 0
0.551647 0.078189 0
0.576706 0.0747171 0
0.601751 0.0715509 0
0.626768 0.0687037 0
0.651738 0.0661814 0
0.676657 0.0639802 0
0.701542 0.0620796 0
0.726408 0.0604602 0
0.751269 0.059105 0
0.776133 0.057987 0
0.801004 0.0570738 0
0.82588 0.0563413 0
0.850755 0.0557764 0
0.875625 0.0553662 0
0.900494 0.0550889 0
0.92537 0.0549146 0
0.950261 0.0548119 0
0.975174 0.0547547 0
1.00011 0.054724 0
1.02507 0.054708 0
1.05004 0.0546998 0
1.07502 0.0546957 0
1.10001 0.0546936 0
1.125 0.0546926 0
1.15 0.0546922 0
1.175 0.054692 0
1.2 0.0546919 0
1.225 0.0546918 0
1.25 0.0546918 0
1.275 0.0546918 0
1.3 0.0546918 0
1.325 0.0546918 0
1.35 0.0546918 0
1.375 0.0546918 0
1.4 0.0546918 0
1.425 0.0546918 0
1.45 0.0546918 0
1.475 0.0546918 0
1.5 0.0546918 0
1.525 0.0546918 0
1.55 0.0546918 0
1.575 0.0546918 0
1.6 0.0546918 0
1.625 0.0546918 0
1.65 0.0546918 0
1.675 0.0546918 0
1.7 0.0546918 0
1.725 0.0546918 0
1.75 0.0546918 0
1.775 0.0546918 0
1.8 0.0546918 0
1.825 0.0546918 0
1.85 0.0546918 0
1.875 0.0546918 0
1.9 0.0546918 0
1.925 0.0546918 0
1.95 0.0546918 0
1.975 0.0546918 0
2 0.0546918 0
2.025 0.0546918 0
2.05 0.0546918 0
2.075 0.0546918 0
2.1 0.0546918 0
2.125 0.0546918 0
2.15 0.0546918 0
2.175 0.0546918 0
2.2 0.0546918 0
2.225 0.0546918 0
2.25 0.0546918 0
2.275 0.0546918 0
2.3 0.0546918 0
2.325 0.0546918 0
2.35 0.0546918 0
2.375 0.0546918 0
2.4 0.0546918 0
2.425 0.0546918 0
2.45 0.0546918 0
2.475 0.0546918 0
2.5 0.0546918 0
0.024951 0.14869 0
0.0499453 0.147755 0
0.0749734 0.146898 0
0.100021 0.146131 0
0.1251 0.145352 0
0.15017 0.144543 0
0.17519 0.14376 0
0.200287 0.14285 0
0.225435 0.141783 0
0.25056 0.140553 0
0.27574 0.138974 0
0.300979 0.137004 0
0.326183 0.134721 0
0.351342 0.132058 0
0.376523 0.128936 0
0.401693 0.125465 0
0.426761 0.121852 0
0.451701 0.118178 0
0.476582 0.114425 0
0.50151 0.110599 0
0.526533 0.106762 0
0.551611 0.103047 0
0.576693 0.0995794 0
0.601751 0.0964231 0
0.626766 0.0936006 0
0.651731 0.0911148 0
0.676653 0.088946 0
0.701544 0.087069 0
0.726412 0.0854681 0
0.751268 0.084126 0
0.776129 0.0830145 0
0.801003 0.0821038 0
0.825884 0.081374 0
0.850764 0.080813 0
0.875635 0.0804056 0
0.900501 0.0801275 0
0.925373 0.0799484 0
0.950261 0.0798385 0
0.975172 0.0797736 0
1.00011 0.0797363 0
1.02506 0.0797154 0
1.05003 0.079704 0
1.07502 0.0796979 0
1.10001 0.0796948 0
1.125 0.0796932 0
1.15 0.0796924 0
1.175 0.0796921 0
1.2 0.0796919 0
1.225 0.0796918 0
1.25 0.0796918 0
1.275 0.0796918 0
1.3 0.0796918 0
1.325 0.0796918 0
1.35 0.0796918 0
1.375 0.0796918 0
1.4 0.0796918 0
1.425 0.0796918 0
1.45 0.0796918 0
1.475 0.0796918 0
1.5 0.0796918 0
1.525 0.0796918 0
1.55 0.0796918 0
1.575 0.0796918 0
1.6 0.0796918 0
1.625 0.0796918 0
1.65 0.0796918 0
1.675 0.0796918 0
1.7 0.0796918 0
1.725 0.0796918 0
1.75 0.0796918 0
1.775 0.0796918 0
1.8 0.0796918 0
1.825 0.0796918 0
1.85 0.0796918 0
1.875 0.0796918 0
1.9 0.0796918 0
1.925 0.0796918 0
1.95 0.0796918 0
1.975 0.0796918 0
2 0.0796918 0
2.025 0.0796918 0
2.05 0.0796918 0
2.075 0.0796918 0
2.1 0.0796918 0
2.125 0.0796918 0
2.15 0.0796918 0
2.175 0.0796918 0
2.2 0.0796918 0
2.225 0.0796918 0
2.25 0.0796918 0
2.275 0.0796918 0
2.3 0.0796918 0
2.325 0.0796918 0
2.35 0.0796918 0
2.375 0.0796918 0
2.4 0.0796918 0
2.425 0.0796918 0
2.45 0.0796918 0
2.475 0.0796918 0
2.5 0.0796918 0
0.0249736 0.173544 0
0.0499939 0.172516 0
0.0750431 0.171546 0
0.100068 0.170719 0
0.125129 0.16991 0
0.15021 0.169067 0
0.175243 0.168277 0
0.200398 0.16726 0
0.225521 0.166152 0
0.250566 0.164938 0
0.275765 0.163303 0
0.301034 0.161327 0
0.326164 0.159154 0
0.351239 0.156583 0
0.376416 0.153497 0
0.401635 0.150103 0
0.426731 0.146628 0
0.451663 0.143078 0
0.476535 0.139364 0
0.501461 0.135489 0
0.526477 0.131597 0
0.551568 0.12787 0
0.576688 0.124414 0
0.60177 0.121281 0
0.626777 0.118495 0
0.651727 0.116047 0
0.67665 0.113906 0
0.701549 0.112052 0
0.726418 0.110472 0
0.751267 0.109144 0
0.776123 0.108036 0
0.800999 0.107125 0
0.825888 0.106397 0
0.850772 0.105843 0
0.875642 0.105442 0
0.900505 0.105166 0
0.925372 0.104984 0
0.950257 0.104868 0
0.975167 0.104795 0
1.0001 0.104751 0
1.02506 0.104724 0
1.05003 0.104709 0
1.07502 0.104701 0
1.10001 0.104696 0
1.125 0.104694 0
1.15 0.104693 0
1.175 0.104692 0
1.2 0.104692 0
1.225 0.104692 0
1.25 0.104692 0
1.275 0.104692 0
1.3 0.104692 0
1.325 0.104692 0
1.35 0.104692 0
1.375 0.104692 0
1.4 0.104692 0
1.425 0.104692 0
1.45 0.104692 0
1.475 0.104692 0
1.5 0.104692 0
1.525 0.104692 0
1.55 0.104692 0
1.575 0.104692 0
1.6 0.104692 0
1.625 0.104692 0
1.65 0.104692 0
1.675 0.104692 0
1.7 0.104692 0
1.725 0.104692 0
1.75 0.104692 0
1.775 0.104692 0
1.8 0.104692 0
1.825 0.104692 0
1.85 0.104692 0
1.875 0.104692 0
1.9 0.104692 0
1.925 0.104692 0
1.95 0.104692 0
1.975 0.104692 0
2 0.104692 0
2.025 0.104692 0
2.05 0.104692 0
2.075 0.104692 0
2.1 0.104692 0
2.125 0.104692 0
2.15 0.104692 0
2.175 0.104692 0
2.2 0.104692 0
2.225 0.104692 0
2.25 0.104692 0
2.275 0.104692 0
2.3 0.104692 0
2.325 0.104692 0
2.35 0.104692 0
2.375 0.104692 0
2.4 0.104692 0
2.425 0.104692 0
2.45 0.104692 0
2.475 0.104692 0
2.5 0.104692 0
</DataArray>
</Points>
<PointData>
<DataArray NumberOfComponents='1' type='Int32' Name='Particle Type' format='ascii'>
0
0
0
0
0
0
0
0
0
0
0
0
0
0
0
0
0
0
0
0
0
0
1
1
1
1
1
1
1
1
1
1
1
1
1
1
1
1
1
1
1
1
1
1
1
1
1
1
1
1
1
1
1
1
1
1
1
1
1
1
1
1
1
1
1
1
1
1
1
1
1
1
1
1
1
1
1
1
1
1
1
1
1
1
1
1
1
1
1
1
1
1
1
1
1
1
1
1
1
1
1
1
1
1
1
1
1
1
1
1
1
1
1
1
1
1
1
1
1
1
1
1
1
1
1
1
1
1
1
1
1
1
1
1
1
1
1
1
1
1
1
1
1
1
1
1
1
1
1
1
1
1
1
1
1
1
1
1
1
1
1
1
1
1
1
1
1
1
1
1
1
1
1
1
1
1
1
1
1
1
1
1
1
1
1
1
1
1
1
1
1
1
1
1
1
1
1
1
1
1
1
1
1
1
1
1
1
1
1
1
1
1
1
1
1
1
1
1
1
1
1
1
1
1
1
1
1
1
1
1
1
1
1
1
1
1
1
1
1
1
1
1
1
1
1
1
1
1
1
1
1
1
1
1
1
1
1
1
1
1
1
1
1
1
1
1
1
1
1
1
1
1
1
1
1
1
1
1
1
1
1
1
1
1
1
1
1
1
1
1
1
1
1
1
1
1
1
1
1
1
1
1
1
1
1
1
1
1
1
1
1
1
1
1
1
1
1
1
1
1
1
1
1
1
1
1
1
1
1
1
1
1
1
1
1
1
1
1
1
1
1
1
1
1
1
1
1
1
1
1
1
1
1
1
1
1
1
1
1
1
1
1
1
1
1
1
1
1
1
1
1
1
1
1
1
1
1
1
1
1
1
1
1
1
1
1
1
1
1
1
1
1
1
1
1
1
1
1
1
1
1
1
1
1
1
1
1
1
1
1
1
1
1
1
1
1
1
1
1
1
1
1
1
1
1
1
1
1
1
1
1
1
1
1
1
1
1
1
1
1
1
1
1
1
1
1
1
1
1
1
1
1
1
1
1
1
1
1
1
1
1
1
1
1
1
1
1
1
1
1
1
1
1
1
1
1
1
1
1
1
1
1
1
1
1
1
1
1
1
1
1
1
1
1
1
1
1
1
1
1
1
1
1
1
1
1
1
1
1
1
1
1
1
1
1
1
1
1
1
1
1
1
1
1
1
1
1
1
1
1
1
1
1
1
1
1
1
1
1
1
1
1
1
1
1
1
1
1
1
1
1
1
1
1
1
1
1
1
1
1
1
1
1
1
1
1
1
1
1
1
1
1
1
1
1
1
1
1
1
1
1
1
1
1
1
1
1
1
1
1
1
1
1
1
1
1
1
1
1
1
1
1
1
1
1
1
1
1
1
1
1
1
1
1
1
1
1
1
1
1
1
1
1
1
1
1
1
1
1
1
1
1
1
1
1
1
1
1
1
1
1
1
1
1
1
1
1
1
1
1
1
1
1
1
1
1
1
1
1
1
1
1
1
1
1
1
1
1
1
1
1
1
1
1
1
1
1
1
1
1
1
1
1
1
1
1
1
1
1
1
1
1
1
1
1
1
1
1
1
1
1
1
1
1
1
1
1
1
1
1
1
1
1
1
1
1
1
1
1
1
1
1
1
1
1
1
1
1
1
1
1
1
1
1
1
1
1
1
1
1
1
1
1
1
1
1
1
1
1
1
1
1
1
1
1
1
1
1
1
1
1
1
1
1
1
1
1
1
1
1
1
1
1
1
1
1
1
1
1
1
1
1
1
1
1
1
1
1
1
1
1
1
1
1
1
1
1
1
1
1
1
1
1
1
1
1
1
1
</DataArray>
<DataArray NumberOfComponents='3' type='Float64' Name='Velocity' format='ascii'>
0 0 0
0 0 0
0 0 0
0 0 0
0 0 0
0 0 0
0 0 0
0 0 0
0 0 0
0 0 0
0 0 0
0 0 0
0 0 0
0 0 0
0 0 0
0 0 0
0 0 0
0 0 0
0 0 0
0 0 0
0 0 0
0 0 0
0.00345438 -0.0183506 0
0.00352381 -0.0282794 0
0.00323388 -0.0335813 0
0.00229358 -0.0377761 0
0.00279801 -0.0407514 0
0.000778447 -0.0455652 0
-0.000882732 -0.0496457 0
-0.000951838 -0.0550577 0
-0.002036 -0.0632761 0
-0.0015126 -0.0712092 0
0.000892115 -0.0806479 0
0.00255552 -0.0918143 0
0.00343448 -0.101317 0
0.0045648 -0.109164 0
0.00558012 -0.117778 0
0.00575029 -0.127118 0
0.00521315 -0.135331 0
0.00461616 -0.14178 0
0.00436556 -0.147336 0
0.00442238 -0.152779 0
0.00451498 -0.157976 0
0.00439556 -0.16231 0
0.00397065 -0.165357 0
0.00330037 -0.167133 0
0.00252534 -0.167955 0
0.00178584 -0.168207 0
0.00117315 -0.16819 0
0.000719689 -0.168087 0
0.000414401 -0.167982 0
0.000225015 -0.167905 0
0.000115704 -0.167856 0
5.6555e-05 -0.167828 0
2.63656e-05 -0.167813 0
1.17583e-05 -0.167806 0
5.02972e-06 -0.167803 0
2.06854e-06 -0.167801 0
8.19646e-07 -0.1678 0
3.13516e-07 -0.1678 0
1.15961e-07 -0.1678 0
4.15398e-08 -0.1678 0
1.44321e-08 -0.1678 0
4.86941e-09 -0.1678 0
1.59742e-09 -0.1678 0
5.10051e-10 -0.1678 0
1.58759e-10 -0.1678 0
4.81724e-11 -0.1678 0
1.42817e-11 -0.1678 0
4.13998e-12 -0.1678 0
1.16847e-12 -0.1678 0
3.11107e-13 -0.1678 0
5.67699e-14 -0.1678 0
6.55408e-15 -0.1678 0
4.842e-16 -0.1678 0
2.34666e-17 -0.1678 0
2.06633e-18 -0.1678 0
1.90247e-19 -0.1678 0
2.70013e-21 -0.1678 0
-4.46876e-21 -0.1678 0
-1.57725e-20 -0.1678 0
-1.3801e-19 -0.1678 0
-8.9595e-19 -0.1678 0
-3.48735e-18 -0.1678 0
-7.76656e-18 -0.1678 0
-4.14602e-18 -0.1678 0
5.65557e-18 -0.1678 0
1.65958e-18 -0.1678 0
2.22967e-18 -0.1678 0
2.63278e-17 -0.1678 0
1.77842e-17 -0.1678 0
-5.51953e-17 -0.1678 0
-8.3683e-17 -0.1678 0
-2.15493e-17 -0.1678 0
2.84591e-18 -0.1678 0
-2.93401e-17 -0.1678 0
-1.28797e-17 -0.1678 0
4.99014e-17 -0.1678 0
2.4299e-17 -0.1678 0
-6.07314e-17 -0.1678 0
-1.48043e-16 -0.1678 0
-1.08449e-16 -0.1678 0
-5.86848e-18 -0.1678 0
2.78668e-17 -0.1678 0
2.11371e-16 -0.1678 0
2.69288e-16 -0.1678 0
2.25093e-16 -0.1678 0
-2.67006e-16 -0.1678 0
-0.000110664 0.000196133 0
8.10103e-05 0.000323241 0
0.000140405 -3.86236e-05 0
-0.000170253 0.000627302 0
-1.9732e-05 -0.000673085 0
-0.000803751 0.000271897 0
-0.00143495 -0.00131105 0
-0.000414862 -0.0034149 0
-0.000395299 -0.00279345 0
-0.00103213 -0.00414481 0
-0.00053449 -0.00550397 0
0.000330645 -0.00420209 0
0.000800832 -0.00494512 0
0.00245069 -0.0102347 0
0.00372484 -0.0202305 0
0.00327324 -0.0267407 0
0.00238268 -0.0315382 0
0.00165507 -0.0366488 0
0.00141406 -0.0407355 0
0.000150275 -0.0456396 0
-0.000924483 -0.0506899 0
-0.00117402 -0.0564676 0
-0.00137703 -0.0640802 0
-0.000602176 -0.0722684 0
0.001103 -0.0815331 0
0.00248711 -0.0919249 0
0.00342845 -0.10153 0
0.0043877 -0.109998 0
0.00518299 -0.118595 0
0.00540554 -0.127384 0
0.00511205 -0.135238 0
0.00470842 -0.141708 0
0.00449692 -0.147372 0
0.00448738 -0.152783 0
0.00449915 -0.157824 0
0.00433965 -0.161996 0
0.00392186 -0.164956 0
0.00328469 -0.166731 0
0.00254427 -0.167612 0
0.0018265 -0.167947 0
0.00121998 -0.16801 0
0.000761586 -0.167972 0
0.00044636 -0.167914 0
0.000246677 -0.167867 0
0.000129057 -0.167836 0
6.41531e-05 -0.167818 0
3.03984e-05 -0.167808 0
1.37705e-05 -0.167804 0
5.97939e-06 -0.167802 0
2.49455e-06 -0.167801 0
1.00203e-06 -0.1678 0
3.88291e-07 -0.1678 0
1.45404e-07 -0.1678 0
5.27022e-08 -0.1678 0
1.85158e-08 -0.1678 0
6.3139e-09 -0.1678 0
2.09226e-09 -0.1678 0
6.74567e-10 -0.1678 0
2.11772e-10 -0.1678 0
6.48076e-11 -0.1678 0
1.93546e-11 -0.1678 0
5.65865e-12 -0.1678 0
1.61886e-12 -0.1678 0
4.46545e-13 -0.1678 0
9.97906e-14 -0.1678 0
1.15571e-14 -0.1678 0
8.08168e-16 -0.1678 0
2.02951e-17 -0.1678 0
4.93683e-19 -0.1678 0
4.63067e-20 -0.1678 0
-6.29446e-21 -0.1678 0
-7.77758e-20 -0.1678 0
-3.86422e-19 -0.1678 0
-1.00798e-18 -0.1678 0
-2.10471e-18 -0.1678 0
-4.53216e-18 -0.1678 0
-5.13929e-18 -0.1678 0
-1.81319e-19 -0.1678 0
8.0859e-18 -0.1678 0
8.52214e-18 -0.1678 0
5.25576e-18 -0.1678 0
1.29983e-17 -0.1678 0
-4.96938e-18 -0.1678 0
-5.74194e-17 -0.1678 0
-7.91571e-17 -0.1678 0
-1.91354e-17 -0.1678 0
1.03462e-17 -0.1678 0
-1.35426e-17 -0.1678 0
-8.58982e-18 -0.1678 0
3.54186e-17 -0.1678 0
2.81402e-17 -0.1678 0
-6.61108e-17 -0.1678 0
-1.07683e-16 -0.1678 0
-1.53394e-17 -0.1678 0
7.65053e-17 -0.1678 0
1.33131e-16 -0.1678 0
9.02186e-17 -0.1678 0
2.9014e-17 -0.1678 0
1.98599e-17 -0.1678 0
-2.36231e-16 -0.1678 0
-0.000711312 -0.00136252 0
-0.000881532 -0.00232616 0
-0.00103365 -0.00506105 0
-0.00144813 -0.00555984 0
-0.000948968 -0.00885261 0
-0.00129419 -0.00729421 0
-0.00164413 -0.00910536 0
-0.000385182 -0.0119157 0
-0.000115492 -0.0106483 0
-0.00031249 -0.0127433 0
0.00026001 -0.0147259 0
0.00103152 -0.0120285 0
0.00202074 -0.0121372 0
0.00320293 -0.0169696 0
0.00419215 -0.0227658 0
0.00379408 -0.0277805 0
0.00280413 -0.0322135 0
0.00226817 -0.0364608 0
0.0014914 -0.0410901 0
0.000264354 -0.0461272 0
-0.000887092 -0.0514821 0
-0.00146721 -0.0573744 0
-0.00131973 -0.0647172 0
-0.000313173 -0.0729383 0
0.00116602 -0.0819399 0
0.00247748 -0.0918974 0
0.0034726 -0.101729 0
0.0042866 -0.110761 0
0.00486901 -0.11945 0
0.00507664 -0.127871 0
0.00495331 -0.135392 0
0.00472327 -0.141762 0
0.00458034 -0.147409 0
0.00455118 -0.152735 0
0.00451886 -0.157624 0
0.00433386 -0.16166 0
0.00391718 -0.164557 0
0.00329589 -0.166349 0
0.00257178 -0.167296 0
0.00186273 -0.167713 0
0.00125629 -0.167853 0
0.000792142 -0.167874 0
0.000468966 -0.167857 0
0.00026176 -0.167836 0
0.000138282 -0.16782 0
6.93852e-05 -0.16781 0
3.31741e-05 -0.167805 0
1.51572e-05 -0.167802 0
6.63524e-06 -0.167801 0
2.78957e-06 -0.1678 0
1.12871e-06 -0.1678 0
4.40389e-07 -0.1678 0
1.65982e-07 -0.1678 0
6.05273e-08 -0.1678 0
2.13869e-08 -0.1678 0
7.33222e-09 -0.1678 0
2.44216e-09 -0.1678 0
7.90991e-10 -0.1678 0
2.49521e-10 -0.1678 0
7.66819e-11 -0.1678 0
2.29986e-11 -0.1678 0
6.72547e-12 -0.1678 0
1.933e-12 -0.1678 0
5.43645e-13 -0.1678 0
1.31143e-13 -0.1678 0
1.55413e-14 -0.1678 0
1.08571e-15 -0.1678 0
1.80056e-17 -0.1678 0
-1.40023e-18 -0.1678 0
-1.5009e-19 -0.1678 0
-2.65113e-20 -0.1678 0
-3.50591e-19 -0.1678 0
-2.17402e-18 -0.1678 0
-5.40885e-18 -0.1678 0
-5.95008e-18 -0.1678 0
-3.20349e-18 -0.1678 0
2.73756e-18 -0.1678 0
6.69312e-18 -0.1678 0
9.05118e-18 -0.1678 0
8.62365e-18 -0.1678 0
1.74386e-17 -0.1678 0
2.66981e-17 -0.1678 0
-2.10937e-17 -0.1678 0
-6.62971e-17 -0.1678 0
-6.82114e-17 -0.1678 0
-1.2346e-17 -0.1678 0
-1.41493e-17 -0.1678 0
-1.7021e-17 -0.1678 0
6.87712e-18 -0.1678 0
-3.32e-17 -0.1678 0
-8.35524e-17 -0.1678 0
-6.0202e-17 -0.1678 0
1.1293e-16 -0.1678 0
1.42363e-16 -0.1678 0
1.06446e-16 -0.1678 0
-8.07977e-17 -0.1678 0
-3.32001e-16 -0.1678 0
-2.9677e-17 -0.1678 0
2.26567e-17 -0.1678 0
2.18263e-17 -0.1678 0
-0.000799529 -0.00430111 0
-0.00136694 -0.00811717 0
-0.001904 -0.0124554 0
-0.00232192 -0.0124994 0
-0.00208465 -0.0184966 0
-0.00212267 -0.0177034 0
-0.00150594 -0.0194174 0
-0.000328739 -0.0218412 0
0.000153528 -0.0199071 0
0.000909514 -0.0220163 0
0.00177951 -0.024358 0
0.00138968 -0.0222727 0
0.00201839 -0.0208617 0
0.00320599 -0.0249021 0
0.00408992 -0.0271736 0
0.0040827 -0.0306908 0
0.00388726 -0.0332402 0
0.00376147 -0.0385013 0
0.00274556 -0.0428912 0
0.00134974 -0.0466046 0
-0.000403341 -0.0512889 0
-0.00167213 -0.0570671 0
-0.00168011 -0.0647158 0
-0.000695346 -0.073319 0
0.000770306 -0.0823335 0
0.00230179 -0.0921589 0
0.0035339 -0.102164 0
0.00431182 -0.111535 0
0.00470374 -0.120307 0
0.00482364 -0.128504 0
0.00476689 -0.135748 0
0.00465003 -0.141946 0
0.00458107 -0.147484 0
0.00457861 -0.152682 0
0.00455163 -0.157419 0
0.00436922 -0.161331 0
0.0039562 -0.164173 0
0.00333696 -0.165981 0
0.00261118 -0.166992 0
0.00189695 -0.167488 0
0.00128337 -0.167702 0
0.000811845 -0.16778 0
0.000482245 -0.167803 0
0.000270098 -0.167806 0
0.000143185 -0.167805 0
7.20971e-05 -0.167803 0
3.45903e-05 -0.167801 0
1.5858e-05 -0.167801 0
6.96501e-06 -0.1678 0
2.93756e-06 -0.1678 0
1.19224e-06 -0.1678 0
4.66537e-07 -0.1678 0
1.76327e-07 -0.1678 0
6.44701e-08 -0.1678 0
2.28372e-08 -0.1678 0
7.84811e-09 -0.1678 0
2.61964e-09 -0.1678 0
8.50495e-10 -0.1678 0
2.68679e-10 -0.1678 0
8.27788e-11 -0.1678 0
2.48981e-11 -0.1678 0
7.2986e-12 -0.1678 0
2.09991e-12 -0.1678 0
5.84395e-13 -0.1678 0
1.47607e-13 -0.1678 0
1.78864e-14 -0.1678 0
1.2696e-15 -0.1678 0
2.30022e-17 -0.1678 0
-1.26507e-18 -0.1678 0
-1.12637e-19 -0.1678 0
-1.04562e-20 -0.1678 0
-4.03246e-19 -0.1678 0
-3.68039e-18 -0.1678 0
-1.1531e-17 -0.1678 0
-1.22506e-17 -0.1678 0
-2.65083e-18 -0.1678 0
6.3269e-18 -0.1678 0
7.502e-18 -0.1678 0
6.23219e-18 -0.1678 0
2.82955e-18 -0.1678 0
1.54833e-17 -0.1678 0
3.70207e-17 -0.1678 0
-7.87506e-18 -0.1678 0
-8.05091e-17 -0.1678 0
-7.51028e-17 -0.1678 0
-2.03762e-17 -0.1678 0
3.7289e-19 -0.1678 0
1.33354e-17 -0.1678 0
-5.51677e-17 -0.1678 0
-1.65244e-16 -0.1678 0
-1.18622e-16 -0.1678 0
5.8132e-17 -0.1678 0
1.74627e-16 -0.1678 0
7.43974e-17 -0.1678 0
-3.19106e-17 -0.1678 0
-2.24362e-16 -0.1678 0
-1.81575e-16 -0.1678 0
3.2307e-16 -0.1678 0
2.81113e-16 -0.1678 0
-6.48696e-17 -0.1678 0
-0.000594698 -0.00289636 0
-0.00141828 -0.00562316 0
-0.00201062 -0.00903384 0
-0.0014956 -0.0110684 0
-0.00221928 -0.0173837 0
-0.00241442 -0.0179317 0
-0.00129445 -0.0205429 0
-0.00100281 -0.0220236 0
-0.000282798 -0.0201513 0
0.0010452 -0.0222057 0
0.00183824 -0.0234587 0
0.00156915 -0.023125 0
0.00175799 -0.0244112 0
0.00292387 -0.0278044 0
0.00343544 -0.0302724 0
0.00366533 -0.0326471 0
0.00431079 -0.0368862 0
0.00426238 -0.0419597 0
0.00354406 -0.0442163 0
0.00215294 -0.0467307 0
-0.000169272 -0.0502884 0
-0.00176275 -0.055756 0
-0.0019082 -0.0640684 0
-0.00119414 -0.0734483 0
0.000169435 -0.0829479 0
0.00195855 -0.092936 0
0.00349926 -0.102957 0
0.00436448 -0.112355 0
0.00467685 -0.121105 0
0.00470733 -0.129148 0
0.00461561 -0.13618 0
0.00451085 -0.142204 0
0.00448599 -0.147609 0
0.00454621 -0.152667 0
0.00458033 -0.157252 0
0.00443785 -0.161038 0
0.00403646 -0.163818 0
0.003407 -0.165634 0
0.00266132 -0.1667 0
0.00192752 -0.167271 0
0.00129948 -0.167555 0
0.000819185 -0.167689 0
0.000485062 -0.16775 0
0.000270929 -0.167777 0
0.000143296 -0.16779 0
7.20187e-05 -0.167795 0
3.45019e-05 -0.167798 0
1.57995e-05 -0.167799 0
6.93338e-06 -0.1678 0
2.92239e-06 -0.1678 0
1.18556e-06 -0.1678 0
4.63793e-07 -0.1678 0
1.7526e-07 -0.1678 0
6.40753e-08 -0.1678 0
2.26975e-08 -0.1678 0
7.80043e-09 -0.1678 0
2.60412e-09 -0.1678 0
8.45407e-10 -0.1678 0
2.67248e-10 -0.1678 0
8.22911e-11 -0.1678 0
2.47277e-11 -0.1678 0
7.26873e-12 -0.1678 0
2.09207e-12 -0.1678 0
5.80321e-13 -0.1678 0
1.47161e-13 -0.1678 0
1.78708e-14 -0.1678 0
1.27388e-15 -0.1678 0
2.45954e-17 -0.1678 0
-7.47746e-19 -0.1678 0
-4.00727e-20 -0.1678 0
3.67664e-21 -0.1678 0
-6.30855e-20 -0.1678 0
-1.0021e-18 -0.1678 0
-4.5646e-18 -0.1678 0
-8.34699e-18 -0.1678 0
-5.27089e-18 -0.1678 0
-3.49528e-18 -0.1678 0
-1.20489e-17 -0.1678 0
-1.795e-17 -0.1678 0
1.19992e-17 -0.1678 0
4.65938e-17 -0.1678 0
1.57355e-17 -0.1678 0
-5.66028e-17 -0.1678 0
-9.00257e-17 -0.1678 0
-3.03978e-17 -0.1678 0
5.94593e-17 -0.1678 0
8.84519e-17 -0.1678 0
5.12115e-18 -0.1678 0
-1.27125e-16 -0.1678 0
-8.32727e-17 -0.1678 0
1.01873e-16 -0.1678 0
1.47523e-16 -0.1678 0
-4.76356e-17 -0.1678 0
-4.4469e-17 -0.1678 0
2.40727e-17 -0.1678 0
9.70967e-17 -0.1678 0
1.96763e-16 -0.1678 0
-1.70361e-16 -0.1678 0
-1.5852e-16 -0.1678 0
1.28182e-16 -0.1678 0
-0.000551147 -0.00318842 0
-0.00136219 -0.00544933 0
-0.00201229 -0.0088022 0
-0.00196012 -0.0114529 0
-0.00260528 -0.0137479 0
-0.0013625 -0.0157413 0
-0.000922266 -0.0194207 0
-0.002519 -0.0200836 0
-0.00101479 -0.0199004 0
0.00137107 -0.0227593 0
0.00141613 -0.0236313 0
0.00162075 -0.0243622 0
0.00262177 -0.0279925 0
0.00322792 -0.0306435 0
0.00286499 -0.0320611 0
0.00307095 -0.0341001 0
0.00423651 -0.0387367 0
0.00488381 -0.0423347 0
0.00434283 -0.0443339 0
0.00185911 -0.0462602 0
-0.00104677 -0.0487594 0
-0.00221771 -0.0543215 0
-0.00204578 -0.0632988 0
-0.00140086 -0.0734409 0
-0.000110548 -0.0837376 0
0.00171376 -0.0940972 0
0.00333182 -0.104008 0
0.00430163 -0.113206 0
0.00470297 -0.121818 0
0.00472788 -0.129701 0
0.00453804 -0.136553 0
0.00433995 -0.142448 0
0.00431208 -0.147767 0
0.0044578 -0.152723 0
0.00460163 -0.15717 0
0.00453277 -0.160818 0
0.00414943 -0.163513 0
0.00349771 -0.165313 0
0.00271544 -0.166419 0
0.00194975 -0.167056 0
0.00130184 -0.167408 0
0.000812716 -0.167596 0
0.000476777 -0.167696 0
0.000264021 -0.167748 0
0.000138557 -0.167775 0
6.91507e-05 -0.167788 0
3.29218e-05 -0.167795 0
1.49927e-05 -0.167798 0
6.54704e-06 -0.167799 0
2.74753e-06 -0.1678 0
1.11031e-06 -0.1678 0
4.32853e-07 -0.1678 0
1.63064e-07 -0.1678 0
5.9451e-08 -0.1678 0
2.10068e-08 -0.1678 0
7.20323e-09 -0.1678 0
2.39977e-09 -0.1678 0