<?xml version='1.0' encoding='UTF-8'?>
<VTKFile byte_order='LittleEndian' version='0.1' type = 'UnstructuredGrid'>
<UnstructuredGrid>
<FieldData>
<DataArray type='Float64' Name='Time' NumberOfComponents='1' NumberOfTuples='1' format='ascii'>
1.601
</DataArray>
</FieldData>
<Piece NumberOfCells='808' NumberOfPoints='808'>
<Points>
<DataArray NumberOfComponents='3' type='Float64' Name='position' format='ascii'>
0 0 0
0 0.025 0
0 0.05 0
0 0.075 0
0 0.1 0
0 0.125 0
0 0.15 0
0 0.175 0
0.025 0 0
0.05 0 0
0.075 0 0
0.1 0 0
0.125 0 0
0.15 0 0
0.175 0 0
0.2 0 0
0.225 0 0
0.25 0 0
0.275 0 0
0.3 0 0
0.325 0 0
0.349331 -0.00135982 0
0.379359 -0.0258045 0
0.404941 -0.0397727 0
0.42971 -0.0510075 0
0.454506 -0.0614659 0
0.479555 -0.0711135 0
0.504319 -0.0800229 0
0.529088 -0.0885747 0
0.553722 -0.0971583 0
0.578731 -0.105347 0
0.603571 -0.113249 0
0.628088 -0.121236 0
0.653078 -0.12893 0
0.678039 -0.136206 0
0.702905 -0.143105 0
0.727915 -0.149862 0
0.752778 -0.156558 0
0.777638 -0.162926 0
0.802605 -0.169054 0
0.827444 -0.175063 0
0.852281 -0.180711 0
0.87731 -0.185889 0
0.902337 -0.19079 0
0.927231 -0.195511 0
0.952124 -0.200084 0
0.977073 -0.20462 0
1.00198 -0.209154 0
1.0268 -0.213541 0
1.05161 -0.217688 0
1.07644 -0.22168 0
1.10129 -0.225601 0
1.12618 -0.229402 0
1.15114 -0.232979 0
1.17618 -0.236296 0
1.20127 -0.239386 0
1.22637 -0.242256 0
1.25146 -0.24486 0
1.27652 -0.247138 0
1.30155 -0.249067 0
1.32655 -0.250673 0
1.35153 -0.252004 0
1.37646 -0.2531 0
1.40137 -0.253983 0
1.42626 -0.25467 0
1.45113 -0.255176 0
1.476 -0.255525 0
1.50085 -0.255747 0
1.52571 -0.255872 0
1.55057 -0.255931 0
1.57545 -0.255948 0
1.60034 -0.255942 0
1.62524 -0.255925 0
1.65017 -0.255905 0
1.67511 -0.255887 0
1.70007 -0.255872 0
1.72505 -0.255861 0
1.75003 -0.255853 0
1.77502 -0.255848 0
1.80001 -0.255844 0
1.82501 -0.255843 0
1.85 -0.255841 0
1.875 -0.255841 0
1.9 -0.25584 0
1.925 -0.25584 0
1.95 -0.25584 0
1.975 -0.25584 0
2 -0.25584 0
2.025 -0.25584 0
2.05 -0.25584 0
2.075 -0.25584 0
2.1 -0.25584 0
2.125 -0.25584 0
2.15 -0.25584 0
2.175 -0.25584 0
2.2 -0.25584 0
2.225 -0.25584 0
2.25 -0.25584 0
2.275 -0.25584 0
2.3 -0.25584 0
2.325 -0.25584 0
2.35 -0.25584 0
2.375 -0.25584 0
2.4 -0.25584 0
2.425 -0.25584 0
2.45 -0.25584 0
2.475 -0.25584 0
2.5 -0.25584 0
0.0248471 0.0244697 0
0.0497785 0.0241154 0
0.0747784 0.0236872 0
0.0997685 0.0235489 0
0.124707 0.023222 0
0.149769 0.0228931 0
0.174616 0.0227659 0
0.199684 0.0220996 0
0.224801 0.0217551 0
0.249608 0.0205572 0
0.274898 0.0192837 0
0.300515 0.0176783 0
0.326476 0.0142452 0
0.354117 0.00742074 0
0.380132 -0.0052739 0
0.40495 -0.0168607 0
0.429907 -0.0274258 0
0.454747 -0.0373076 0
0.479554 -0.0465196 0
0.504313 -0.0552563 0
0.529062 -0.0638351 0
0.553733 -0.0723111 0
0.578567 -0.0805177 0
0.603446 -0.0885375 0
0.628244 -0.0964876 0
0.653148 -0.104154 0
0.678018 -0.111413 0
0.702893 -0.118391 0
0.72787 -0.125164 0
0.752796 -0.131756 0
0.77769 -0.138088 0
0.802597 -0.144192 0
0.827447 -0.150131 0
0.852311 -0.155748 0
0.877288 -0.160959 0
0.90229 -0.165882 0
0.927227 -0.170615 0
0.952141 -0.175208 0
0.977067 -0.179722 0
1.00196 -0.184185 0
1.0268 -0.188524 0
1.05161 -0.19268 0
1.07644 -0.196701 0
1.10129 -0.200636 0
1.12618 -0.204444 0
1.15115 -0.208038 0
1.17619 -0.211377 0
1.20127 -0.214469 0
1.22637 -0.217318 0
1.25146 -0.219889 0
1.27652 -0.222137 0
1.30155 -0.224047 0
1.32655 -0.225642 0
1.35152 -0.226965 0
1.37646 -0.228054 0
1.40137 -0.228932 0
1.42626 -0.229613 0
1.45113 -0.230116 0
1.476 -0.230464 0
1.50086 -0.230686 0
1.52571 -0.230815 0
1.55058 -0.23088 0
1.57545 -0.230904 0
1.60034 -0.230906 0
1.62525 -0.230897 0
1.65017 -0.230884 0
1.67512 -0.230872 0
1.70008 -0.230862 0
1.72505 -0.230854 0
1.75003 -0.230849 0
1.77502 -0.230845 0
1.80001 -0.230843 0
1.82501 -0.230842 0
1.85 -0.230841 0
1.875 -0.23084 0
1.9 -0.23084 0
1.925 -0.23084 0
1.95 -0.23084 0
1.975 -0.23084 0
2 -0.23084 0
2.025 -0.23084 0
2.05 -0.23084 0
2.075 -0.23084 0
2.1 -0.23084 0
2.125 -0.23084 0
2.15 -0.23084 0
2.175 -0.23084 0
2.2 -0.23084 0
2.225 -0.23084 0
2.25 -0.23084 0
2.275 -0.23084 0
2.3 -0.23084 0
2.325 -0.23084 0
2.35 -0.23084 0
2.375 -0.23084 0
2.4 -0.23084 0
2.425 -0.23084 0
2.45 -0.23084 0
2.475 -0.23084 0
2.5 -0.23084 0
0.0248365 0.0492992 0
0.0497397 0.0488373 0
0.0746468 0.0483556 0
0.0996169 0.0479488 0
0.124543 0.0475794 0
0.149573 0.0468129 0
0.174518 0.0462593 0
0.199592 0.045133 0
0.224808 0.0444171 0
0.249918 0.0427452 0
0.27539 0.0408009 0
0.301162 0.0381632 0
0.327434 0.0333165 0
0.354246 0.0263984 0
0.380119 0.0163958 0
0.405079 0.00610076 0
0.430013 -0.0035182 0
0.454741 -0.0128442 0
0.47946 -0.0219873 0
0.504298 -0.0307762 0
0.529103 -0.0391362 0
0.553818 -0.0475373 0
0.578622 -0.0556584 0
0.603467 -0.0635805 0
0.628271 -0.0715347 0
0.653111 -0.0792457 0
0.677976 -0.0865267 0
0.7029 -0.0935372 0
0.727888 -0.100341 0
0.752827 -0.106867 0
0.777715 -0.113168 0
0.802603 -0.119257 0
0.827475 -0.125103 0
0.852351 -0.13068 0
0.877291 -0.135949 0
0.902268 -0.14093 0
0.927218 -0.145691 0
0.952141 -0.150285 0
0.977059 -0.154761 0
1.00195 -0.159156 0
1.0268 -0.163454 0
1.05161 -0.167622 0
1.07643 -0.171677 0
1.10127 -0.17564 0
1.12618 -0.17947 0
1.15115 -0.183089 0
1.17619 -0.18645 0
1.20128 -0.189547 0
1.22637 -0.192377 0
1.25146 -0.194915 0
1.27652 -0.197131 0
1.30155 -0.19902 0
1.32655 -0.200605 0
1.35152 -0.201925 0
1.37645 -0.203013 0
1.40137 -0.203888 0
1.42626 -0.204566 0
1.45113 -0.205065 0
1.476 -0.20541 0
1.50086 -0.205632 0
1.52572 -0.205763 0
1.55058 -0.205832 0
1.57546 -0.205863 0
1.60034 -0.205872 0
1.62525 -0.205871 0
1.65018 -0.205865 0
1.67512 -0.205858 0
1.70008 -0.205853 0
1.72505 -0.205848 0
1.75003 -0.205845 0
1.77502 -0.205843 0
1.80001 -0.205842 0
1.82501 -0.205841 0
1.85 -0.205841 0
1.875 -0.20584 0
1.9 -0.20584 0
1.925 -0.20584 0
1.95 -0.20584 0
1.975 -0.20584 0
2 -0.20584 0
2.025 -0.20584 0
2.05 -0.20584 0
2.075 -0.20584 0
2.1 -0.20584 0
2.125 -0.20584 0
2.15 -0.20584 0
2.175 -0.20584 0
2.2 -0.20584 0
2.225 -0.20584 0
2.25 -0.20584 0
2.275 -0.20584 0
2.3 -0.20584 0
2.325 -0.20584 0
2.35 -0.20584 0
2.375 -0.20584 0
2.4 -0.20584 0
2.425 -0.20584 0
2.45 -0.20584 0
2.475 -0.20584 0
2.5 -0.20584 0
0.0247943 0.0738558 0
0.0496967 0.0730805 0
0.0745795 0.0722759 0
0.0994857 0.0714135 0
0.124466 0.0706222 0
0.149489 0.069621 0
0.174553 0.0688834 0
0.199707 0.0673648 0
0.224949 0.0660661 0
0.250288 0.0641018 0
0.275868 0.0618625 0
0.301703 0.058621 0
0.327808 0.0533959 0
0.354143 0.0466969 0
0.379838 0.0384262 0
0.405011 0.0292806 0
0.430037 0.0203273 0
0.454796 0.0113711 0
0.479515 0.00246667 0
0.504319 -0.00595701 0
0.529113 -0.0144685 0
0.55383 -0.0228363 0
0.578635 -0.0308469 0
0.603482 -0.0386384 0
0.628255 -0.0465553 0
0.653046 -0.0543432 0
0.677932 -0.0616538 0
0.702916 -0.0686064 0
0.727922 -0.0753927 0
0.75284 -0.0819634 0
0.777701 -0.0882858 0
0.802604 -0.0943319 0
0.827526 -0.1001 0
0.852423 -0.105629 0
0.877328 -0.110926 0
0.902264 -0.115966 0
0.927199 -0.120753 0
0.952119 -0.125336 0
0.977038 -0.12977 0
1.00194 -0.134108 0
1.0268 -0.13837 0
1.05161 -0.142547 0
1.07642 -0.146638 0
1.10126 -0.15064 0
1.12617 -0.154503 0
1.15114 -0.158153 0
1.17619 -0.161537 0
1.20127 -0.16464 0
1.22637 -0.167451 0
1.25147 -0.169955 0
1.27653 -0.172135 0
1.30156 -0.173999 0
1.32656 -0.175572 0
1.35152 -0.17689 0
1.37645 -0.177978 0
1.40137 -0.178853 0
1.42626 -0.179527 0
1.45114 -0.180021 0
1.476 -0.180361 0
1.50086 -0.18058 0
1.52572 -0.180712 0
1.55058 -0.180785 0
1.57546 -0.180823 0
1.60035 -0.180839 0
1.62525 -0.180845 0
1.65018 -0.180846 0
1.67512 -0.180845 0
1.70008 -0.180844 0
1.72505 -0.180843 0
1.75003 -0.180842 0
1.77502 -0.180841 0
1.80001 -0.180841 0
1.82501 -0.18084 0
1.85 -0.18084 0
1.875 -0.18084 0
1.9 -0.18084 0
1.925 -0.18084 0
1.95 -0.18084 0
1.975 -0.18084 0
2 -0.18084 0
2.025 -0.18084 0
2.05 -0.18084 0
2.075 -0.18084 0
2.1 -0.18084 0
2.125 -0.18084 0
2.15 -0.18084 0
2.175 -0.18084 0
2.2 -0.18084 0
2.225 -0.18084 0
2.25 -0.18084 0
2.275 -0.18084 0
2.3 -0.18084 0
2.325 -0.18084 0
2.35 -0.18084 0
2.375 -0.18084 0
2.4 -0.18084 0
2.425 -0.18084 0
2.45 -0.18084 0
2.475 -0.18084 0
2.5 -0.18084 0
0.0248115 0.0984141 0
0.0497596 0.097324 0
0.0746446 0.0962311 0
0.0995242 0.0950297 0
0.124522 0.0940814 0
0.149611 0.0928076 0
0.174748 0.0916762 0
0.199904 0.0900972 0
0.225193 0.0885756 0
0.250671 0.0861536 0
0.27615 0.0833586 0
0.301954 0.0798359 0
0.327888 0.0746113 0
0.353835 0.0685749 0
0.379468 0.0609729 0
0.404791 0.0527801 0
0.429943 0.044182 0
0.45475 0.035693 0
0.479495 0.0270539 0
0.504338 0.0186233 0
0.529174 0.0103745 0
0.553828 0.00212405 0
0.578561 -0.00605323 0
0.603431 -0.013922 0
0.628259 -0.0217073 0
0.653047 -0.0294533 0
0.677912 -0.0367192 0
0.70291 -0.0436094 0
0.72793 -0.0504028 0
0.752831 -0.0570475 0
0.777672 -0.0634241 0
0.8026 -0.0694509 0
0.827584 -0.0751567 0
0.852515 -0.0806291 0
0.877395 -0.0859242 0
0.902276 -0.0909929 0
0.927171 -0.0957929 0
0.95208 -0.100366 0
0.977005 -0.104773 0
1.00192 -0.109067 0
1.0268 -0.113297 0
1.05161 -0.117476 0
1.07641 -0.121602 0
1.10125 -0.125648 0
1.12615 -0.129551 0
1.15113 -0.133233 0
1.17617 -0.13664 0
1.20126 -0.139748 0
1.22637 -0.142542 0
1.25147 -0.145011 0
1.27654 -0.147154 0
1.30158 -0.148989 0
1.32657 -0.150548 0
1.35153 -0.151862 0
1.37646 -0.152952 0
1.40137 -0.153826 0
1.42626 -0.154497 0
1.45114 -0.154984 0
1.47601 -0.155317 0
1.50087 -0.155532 0
1.52573 -0.155663 0
1.55059 -0.155739 0
1.57546 -0.155782 0
1.60035 -0.155806 0
1.62526 -0.15582 0
1.65018 -0.155828 0
1.67512 -0.155832 0
1.70008 -0.155835 0
1.72505 -0.155837 0
1.75003 -0.155838 0
1.77502 -0.155839 0
1.80001 -0.155839 0
1.82501 -0.15584 0
1.85 -0.15584 0
1.875 -0.15584 0
1.9 -0.15584 0
1.925 -0.15584 0
1.95 -0.15584 0
1.975 -0.15584 0
2 -0.15584 0
2.025 -0.15584 0
2.05 -0.15584 0
2.075 -0.15584 0
2.1 -0.15584 0
2.125 -0.15584 0
2.15 -0.15584 0
2.175 -0.15584 0
2.2 -0.15584 0
2.225 -0.15584 0
2.25 -0.15584 0
2.275 -0.15584 0
2.3 -0.15584 0
2.325 -0.15584 0
2.35 -0.15584 0
2.375 -0.15584 0
2.4 -0.15584 0
2.425 -0.15584 0
2.45 -0.15584 0
2.475 -0.15584 0
2.5 -0.15584 0
0.0248096 0.123477 0
0.0497619 0.122456 0
0.0746631 0.12132 0
0.0995876 0.120227 0
0.124768 0.119117 0
0.149885 0.117523 0
0.174959 0.116176 0
0.200091 0.114426 0
0.22528 0.112676 0
0.250959 0.110025 0
0.276522 0.106544 0
0.302076 0.102686 0
0.327948 0.0975682 0
0.353669 0.0915359 0
0.379201 0.0843781 0
0.404533 0.0765386 0
0.429688 0.0683483 0
0.454541 0.0600647 0
0.479295 0.0515747 0
0.504243 0.0435157 0
0.529165 0.0352206 0
0.55385 0.0268647 0
0.578608 0.0187145 0
0.603456 0.0107951 0
0.628267 0.0030958 0
0.653035 -0.00446226 0
0.677874 -0.0117115 0
0.702888 -0.0186489 0
0.727941 -0.0254527 0
0.752837 -0.0321274 0
0.777658 -0.0385372 0
0.802594 -0.0445783 0
0.827625 -0.0502662 0
0.852598 -0.0556877 0
0.877467 -0.0609402 0
0.902293 -0.0659982 0
0.927142 -0.0707965 0
0.952036 -0.0753815 0
0.976971 -0.0797777 0
1.00191 -0.0840396 0
1.02679 -0.0882373 0
1.05161 -0.0924137 0
1.07641 -0.0965707 0
1.10124 -0.100662 0
1.12615 -0.104607 0
1.15112 -0.108321 0
1.17616 -0.11175 0
1.20124 -0.114864 0
1.22636 -0.117645 0
1.25147 -0.120083 0
1.27655 -0.122188 0
1.30159 -0.123992 0
1.32658 -0.125533 0
1.35154 -0.126843 0
1.37646 -0.127934 0
1.40137 -0.128808 0
1.42626 -0.129475 0
1.45114 -0.129954 0
1.47601 -0.130279 0
1.50087 -0.130488 0
1.52573 -0.130617 0
1.55059 -0.130695 0
1.57546 -0.130743 0
1.60035 -0.130774 0
1.62525 -0.130794 0
1.65018 -0.130809 0
1.67512 -0.130819 0
1.70008 -0.130826 0
1.72505 -0.130831 0
1.75003 -0.130835 0
1.77502 -0.130837 0
1.80001 -0.130838 0
1.82501 -0.130839 0
1.85 -0.130839 0
1.875 -0.13084 0
1.9 -0.13084 0
1.925 -0.13084 0
1.95 -0.13084 0
1.975 -0.13084 0
2 -0.13084 0
2.025 -0.13084 0
2.05 -0.13084 0
2.075 -0.13084 0
2.1 -0.13084 0
2.125 -0.13084 0
2.15 -0.13084 0
2.175 -0.13084 0
2.2 -0.13084 0
2.225 -0.13084 0
2.25 -0.13084 0
2.275 -0.13084 0
2.3 -0.13084 0
2.325 -0.13084 0
2.35 -0.13084 0
2.375 -0.13084 0
2.4 -0.13084 0
2.425 -0.13084 0
2.45 -0.13084 0
2.475 -0.13084 0
2.5 -0.13084 0
0.0248058 0.148214 0
0.049762 0.146935 0
0.0746883 0.145637 0
0.0996632 0.144517 0
0.124815 0.143239 0
0.149778 0.141968 0
0.174967 0.140654 0
0.200492 0.138489 0
0.225603 0.136199 0
0.251076 0.133545 0
0.276887 0.129955 0
0.302198 0.12583 0
0.327962 0.120936 0
0.353691 0.114853 0
0.378974 0.108169 0
0.404257 0.100583 0
0.42952 0.0928852 0
0.454423 0.0846291 0
0.479156 0.0764906 0
0.504306 0.0683045 0
0.529185 0.0596898 0
0.553723 0.0514973 0
0.578559 0.0435517 0
0.603523 0.0356945 0
0.628287 0.0280305 0
0.65295 0.0204969 0
0.677801 0.0131968 0
0.702908 0.00620602 0
0.728005 -0.000577436 0
0.752871 -0.00721579 0
0.777647 -0.0136362 0
0.802574 -0.0197163 0
0.827642 -0.0254134 0
0.852656 -0.0308046 0
0.87752 -0.0359866 0
0.902305 -0.0409814 0
0.927116 -0.0457969 0
0.951998 -0.0504141 0
0.976943 -0.0548123 0
1.00189 -0.0590456 0
1.02679 -0.0632092 0
1.05161 -0.0673778 0
1.0764 -0.0715614 0
1.10124 -0.0756958 0
1.12614 -0.0796782 0
1.15111 -0.0834195 0
1.17614 -0.0868672 0
1.20122 -0.0899902 0
1.22634 -0.0927629 0
1.25146 -0.095174 0
1.27656 -0.0972419 0
1.3016 -0.0990122 0
1.3266 -0.100534 0
1.35155 -0.101836 0
1.37647 -0.102926 0
1.40138 -0.103799 0
1.42627 -0.10446 0
1.45115 -0.10493 0
1.47601 -0.105246 0
1.50087 -0.105447 0
1.52573 -0.105573 0
1.55059 -0.105652 0
1.57546 -0.105704 0
1.60035 -0.105741 0
1.62525 -0.105769 0
1.65018 -0.10579 0
1.67512 -0.105806 0
1.70008 -0.105817 0
1.72505 -0.105826 0
1.75003 -0.105831 0
1.77502 -0.105835 0
1.80001 -0.105837 0
1.82501 -0.105838 0
1.85 -0.105839 0
1.875 -0.10584 0
1.9 -0.10584 0
1.925 -0.10584 0
1.95 -0.10584 0
1.975 -0.10584 0
2 -0.10584 0
2.025 -0.10584 0
2.05 -0.10584 0
2.075 -0.10584 0
2.1 -0.10584 0
2.125 -0.10584 0
2.15 -0.10584 0
2.175 -0.10584 0
2.2 -0.10584 0
2.225 -0.10584 0
2.25 -0.10584 0
2.275 -0.10584 0
2.3 -0.10584 0
2.325 -0.10584 0
2.35 -0.10584 0
2.375 -0.10584 0
2.4 -0.10584 0
2.425 -0.10584 0
2.45 -0.10584 0
2.475 -0.10584 0
2.5 -0.10584 0
0.0248028 0.173157 0
0.0497793 0.171629 0
0.0748683 0.170333 0
0.0999142 0.16887 0
0.12482 0.167611 0
0.150105 0.165873 0
0.174918 0.164226 0
0.200451 0.162342 0
0.225775 0.160043 0
0.250971 0.157346 0
0.276917 0.153871 0
0.302234 0.149694 0
0.327846 0.144598 0
0.3538 0.138624 0
0.378715 0.13197 0
0.403937 0.124847 0
0.429559 0.117048 0
0.454303 0.109099 0
0.479059 0.100894 0
0.50431 0.0924909 0
0.529192 0.0844144 0
0.553593 0.0763163 0
0.578344 0.0682616 0
0.60353 0.0604571 0
0.628339 0.0528773 0
0.652821 0.045371 0
0.677696 0.0378974 0
0.702973 0.0307756 0
0.728122 0.0241152 0
0.752917 0.0176362 0
0.77761 0.0112152 0
0.802527 0.00504999 0
0.827652 -0.000686687 0
0.852708 -0.00601536 0
0.877557 -0.011091 0
0.902303 -0.0160276 0
0.927087 -0.0208628 0
0.951966 -0.0255122 0
0.976925 -0.0299134 0
1.00189 -0.0341156 0
1.02679 -0.0382392 0
1.05161 -0.042393 0
1.07639 -0.0465984 0
1.10122 -0.0507714 0
1.12613 -0.0547847 0
1.15109 -0.0585443 0
1.17612 -0.0620054 0
1.2012 -0.065137 0
1.22633 -0.0679043 0
1.25147 -0.0702901 0
1.27657 -0.0723199 0
1.30162 -0.0740532 0
1.32661 -0.0755495 0
1.35156 -0.0768394 0
1.37648 -0.0779236 0
1.40138 -0.0787923 0
1.42627 -0.0794462 0
1.45115 -0.0799066 0
1.47602 -0.0802115 0
1.50088 -0.0804049 0
1.52573 -0.0805267 0
1.55059 -0.0806064 0
1.57546 -0.0806629 0
1.60034 -0.0807063 0
1.62525 -0.0807411 0
1.65017 -0.0807691 0
1.67512 -0.0807909 0
1.70008 -0.0808072 0
1.72505 -0.080819 0
1.75003 -0.080827 0
1.77502 -0.0808322 0
1.80001 -0.0808355 0
1.82501 -0.0808375 0
1.85 -0.0808386 0
1.875 -0.0808393 0
1.9 -0.0808396 0
1.925 -0.0808398 0
1.95 -0.0808399 0
1.975 -0.08084 0
2 -0.08084 0
2.025 -0.08084 0
2.05 -0.08084 0
2.075 -0.08084 0
2.1 -0.08084 0
2.125 -0.08084 0
2.15 -0.08084 0
2.175 -0.08084 0
2.2 -0.08084 0
2.225 -0.08084 0
2.25 -0.08084 0
2.275 -0.08084 0
2.3 -0.08084 0
2.325 -0.08084 0
2.35 -0.08084 0
2.375 -0.08084 0
2.4 -0.08084 0
2.425 -0.08084 0
2.45 -0.08084 0
2.475 -0.08084 0
2.5 -0.08084 0
</DataArray>
</Points>
<PointData>
<DataArray NumberOfComponents='1' type='Int32' Name='Particle Type' format='ascii'>
0
0
0
0
0
0
0
0
0
0
0
0
0
0
0
0
0
0
0
0
0
0
1
1
1
1
1
1
1
1
1
1
1
1
1
1
1
1
1
1
1
1
1
1
1
1
1
1
1
1
1
1
1
1
1
1
1
1
1
1
1
1
1
1
1
1
1
1
1
1
1
1
1
1
1
1
1
1
1
1
1
1
1
1
1
1
1
1
1
1
1
1
1
1
1
1
1
1
1
1
1
1
1
1
1
1
1
1
1
1
1
1
1
1
1
1
1
1
1
1
1
1
1
1
1
1
1
1
1
1
1
1
1
1
1
1
1
1
1
1
1
1
1
1
1
1
1
1
1
1
1
1
1
1
1
1
1
1
1
1
1
1
1
1
1
1
1
1
1
1
1
1
1
1
1
1
1
1
1
1
1
1
1
1
1
1
1
1
1
1
1
1
1
1
1
1
1
1
1
1
1
1
1
1
1
1
1
1
1
1
1
1
1
1
1
1
1
1
1
1
1
1
1
1
1
1
1
1
1
1
1
1
1
1
1
1
1
1
1
1
1
1
1
1
1
1
1
1
1
1
1
1
1
1
1
1
1
1
1
1
1
1
1
1
1
1
1
1
1
1
1
1
1
1
1
1
1
1
1
1
1
1
1
1
1
1
1
1
1
1
1
1
1
1
1
1
1
1
1
1
1
1
1
1
1
1
1
1
1
1
1
1
1
1
1
1
1
1
1
1
1
1
1
1
1
1
1
1
1
1
1
1
1
1
1
1
1
1
1
1
1
1
1
1
1
1
1
1
1
1
1
1
1
1
1
1
1
1
1
1
1
1
1
1
1
1
1
1
1
1
1
1
1
1
1
1
1
1
1
1
1
1
1
1
1
1
1
1
1
1
1
1
1
1
1
1
1
1
1
1
1
1
1
1
1
1
1
1
1
1
1
1
1
1
1
1
1
1
1
1
1
1
1
1
1
1
1
1
1
1
1
1
1
1
1
1
1
1
1
1
1
1
1
1
1
1
1
1
1
1
1
1
1
1
1
1
1
1
1
1
1
1
1
1
1
1
1
1
1
1
1
1
1
1
1
1
1
1
1
1
1
1
1
1
1
1
1
1
1
1
1
1
1
1
1
1
1
1
1
1
1
1
1
1
1
1
1
1
1
1
1
1
1
1
1
1
1
1
1
1
1
1
1
1
1
1
1
1
1
1
1
1
1
1
1
1
1
1
1
1
1
1
1
1
1
1
1
1
1
1
1
1
1
1
1
1
1
1
1
1
1
1
1
1
1
1
1
1
1
1
1
1
1
1
1
1
1
1
1
1
1
1
1
1
1
1
1
1
1
1
1
1
1
1
1
1
1
1
1
1
1
1
1
1
1
1
1
1
1
1
1
1
1
1
1
1
1
1
1
1
1
1
1
1
1
1
1
1
1
1
1
1
1
1
1
1
1
1
1
1
1
1
1
1
1
1
1
1
1
1
1
1
1
1
1
1
1
1
1
1
1
1
1
1
1
1
1
1
1
1
1
1
1
1
1
1
1
1
1
1
1
1
1
1
1
1
1
1
1
1
1
1
1
1
1
1
1
1
1
1
1
1
1
1
1
1
1
1
1
1
1
1
1
1
1
1
1
1
1
1
1
1
1
1
1
1
1
1
1
1
1
1
1
1
1
1
1
1
1
1
1
1
1
1
1
1
1
1
1
1
1
1
1
1
1
1
1
1
1
1
1
1
1
1
1
1
1
1
1
1
1
1
1
1
1
1
1
1
1
1
1
1
1
1
1
1
1
1
1
1
1
1
1
1
1
1
1
1
1
1
1
1
1
1
1
1
1
1
</DataArray>
<DataArray NumberOfComponents='3' type='Float64' Name='Velocity' format='ascii'>
0 0 0
0 0 0
0 0 0
0 0 0
0 0 0
0 0 0
0 0 0
0 0 0
0 0 0
0 0 0
0 0 0
0 0 0
0 0 0
0 0 0
0 0 0
0 0 0
0 0 0
0 0 0
0 0 0
0 0 0
0 0 0
-0.017879 -0.0391325 0
-0.0073738 -0.0185318 0
0.00230849 -0.0288801 0
0.0145489 -0.0370747 0
-0.000396527 -0.0317062 0
0.00150148 -0.0464374 0
0.00497544 -0.058584 0
0.00686825 -0.0582751 0
0.0035164 -0.0611259 0
-0.00324138 -0.0747402 0
0.0113238 -0.0749496 0
0.00587487 -0.0770737 0
-0.0041036 -0.0890165 0
0.00132237 -0.101266 0
-0.000876426 -0.109083 0
-0.000285694 -0.109568 0
0.0035019 -0.114825 0
0.00014845 -0.124501 0
0.000639988 -0.129024 0
0.00370303 -0.136251 0
-0.000375074 -0.150906 0
-0.00366964 -0.163312 0
-2.90504e-05 -0.169984 0
0.00277276 -0.174764 0
0.00140993 -0.177153 0
0.00110161 -0.176995 0
0.003433 -0.179385 0
0.00514173 -0.18656 0
0.00505155 -0.193631 0
0.00449691 -0.197218 0
0.00375356 -0.199983 0
0.00200249 -0.205388 0
-0.000584035 -0.212977 0
-0.00275759 -0.220305 0
-0.00366832 -0.226779 0
-0.00348827 -0.233953 0
-0.00280582 -0.243125 0
-0.00195559 -0.253837 0
-0.000951437 -0.264557 0
0.000234638 -0.274086 0
0.00149931 -0.282174 0
0.00266172 -0.289202 0
0.00359133 -0.295589 0
0.0042622 -0.301474 0
0.00471429 -0.306737 0
0.00498787 -0.311183 0
0.00508978 -0.314682 0
0.00500266 -0.317233 0
0.00471455 -0.318941 0
0.00424242 -0.319969 0
0.00363647 -0.3205 0
0.00296732 -0.320698 0
0.00230654 -0.320698 0
0.00171052 -0.320599 0
0.00121257 -0.320467 0
0.00082341 -0.320338 0
0.000536767 -0.320231 0
0.000336594 -0.32015 0
0.000203431 -0.320093 0
0.000118713 -0.320056 0
6.69976e-05 -0.320032 0
3.66239e-05 -0.320018 0
1.94186e-05 -0.320009 0
9.9995e-06 -0.320005 0
5.00678e-06 -0.320002 0
2.44025e-06 -0.320001 0
1.15891e-06 -0.320001 0
5.368e-07 -0.32 0
2.4272e-07 -0.32 0
1.07223e-07 -0.32 0
4.6312e-08 -0.32 0
1.95719e-08 -0.32 0
8.09851e-09 -0.32 0
3.28307e-09 -0.32 0
1.30477e-09 -0.32 0
5.08506e-10 -0.32 0
1.94542e-10 -0.32 0
7.31119e-11 -0.32 0
2.70045e-11 -0.32 0
9.87648e-12 -0.32 0
3.5665e-12 -0.32 0
1.23285e-12 -0.32 0
3.74468e-13 -0.32 0
6.10572e-14 -0.32 0
9.95903e-15 -0.32 0
-8.75866e-16 -0.32 0
-1.07541e-15 -0.32 0
0.00356468 0.000869307 0
0.00217976 0.0014367 0
-0.00193106 0.00638341 0
-0.00265408 -0.000293889 0
-0.00686875 0.00498665 0
-0.0036075 -0.0179265 0
0.0022928 -0.0077585 0
-0.00517841 -0.0121537 0
0.00464924 -0.00667357 0
0.00389324 0.0101104 0
-0.00104876 -0.00804437 0
-0.00352858 -0.00484897 0
-0.00978205 -0.0239406 0
-0.00407527 -0.0465841 0
-0.000561477 -0.0252046 0
0.000433975 -0.035269 0
0.00470462 -0.0452751 0
0.00498384 -0.0510703 0
0.00692048 -0.0624091 0
0.00727425 -0.0626649 0
0.00855566 -0.0607247 0
0.00673827 -0.0630862 0
0.000328961 -0.068461 0
0.00148173 -0.0714258 0
0.000619425 -0.0768843 0
4.84033e-05 -0.0887203 0
0.00255527 -0.0992532 0
0.000163782 -0.10608 0
-0.000843831 -0.111922 0
0.00113933 -0.118244 0
0.00117807 -0.126151 0
0.00215525 -0.131247 0
0.00316565 -0.138429 0
0.000418817 -0.150832 0
-0.0021452 -0.162194 0
-0.000782452 -0.169301 0
0.0012555 -0.174076 0
0.00146367 -0.177038 0
0.00177119 -0.178892 0
0.00338834 -0.181728 0
0.00491015 -0.18724 0
0.00526279 -0.19285 0
0.00473375 -0.196392 0
0.00358103 -0.199555 0
0.00166387 -0.20486 0
-0.000710953 -0.212198 0
-0.0026724 -0.219817 0
-0.00358527 -0.227074 0
-0.00350218 -0.234919 0
-0.00283627 -0.244255 0
-0.00190493 -0.254728 0
-0.000825357 -0.265124 0
0.000352636 -0.274439 0
0.00154012 -0.282436 0
0.00261939 -0.289431 0
0.00350557 -0.295788 0
0.00417658 -0.301628 0
0.00465013 -0.30683 0
0.00494394 -0.3112 0
0.00505572 -0.314616 0
0.00497119 -0.317084 0
0.00468575 -0.318722 0
0.0042212 -0.319705 0
0.00362772 -0.32022 0
0.0029727 -0.32043 0
0.00232394 -0.320462 0
0.00173541 -0.320406 0
0.00123997 -0.320319 0
0.000849319 -0.320231 0
0.000558744 -0.320158 0
0.000353718 -0.320102 0
0.000215867 -0.320063 0
0.000127212 -0.320037 0
7.25051e-05 -0.320021 0
4.00253e-05 -0.320012 0
2.14295e-05 -0.320006 0
1.11414e-05 -0.320003 0
5.63148e-06 -0.320002 0
2.77029e-06 -0.320001 0
1.32764e-06 -0.32 0
6.20436e-07 -0.32 0
2.82977e-07 -0.32 0
1.26067e-07 -0.32 0
5.49007e-08 -0.32 0
2.33881e-08 -0.32 0
9.7532e-09 -0.32 0
3.98387e-09 -0.32 0
1.59481e-09 -0.32 0
6.26079e-10 -0.32 0
2.41303e-10 -0.32 0
9.12382e-11 -0.32 0
3.39292e-11 -0.32 0
1.23808e-11 -0.32 0
4.47171e-12 -0.32 0
1.58676e-12 -0.32 0
5.38478e-13 -0.32 0
1.13138e-13 -0.32 0
1.31894e-14 -0.32 0
9.86847e-16 -0.32 0
1.66383e-16 -0.32 0
-0.000561953 0.00226375 0
0.000549651 -0.000106208 0
0.00052425 0.00927822 0
0.00342051 -0.00167569 0
0.00143669 0.0150957 0
-0.00256508 0.0115606 0
-0.000865702 0.0227606 0
-0.00613784 0.0128248 0
-0.00181357 0.00646216 0
-0.004221 0.0126098 0
-0.00149248 -0.00885553 0
0.00579738 0.00559748 0
-0.00293269 -0.00861612 0
-0.00176125 -0.0219509 0
0.00182337 -0.0208011 0
0.00223365 -0.033076 0
0.00571717 -0.0455007 0
0.00846344 -0.0447148 0
0.00416543 -0.0457929 0
0.00158297 -0.061296 0
0.00428186 -0.0637586 0
0.00474857 -0.0653085 0
0.00168092 -0.0729874 0
0.00235612 -0.0727471 0
0.00259485 -0.0745104 0
0.00190469 -0.0862751 0
0.00104194 -0.0973056 0
-0.0014619 -0.104124 0
-0.0016158 -0.11286 0
0.000917663 -0.121405 0
0.0020851 -0.127343 0
0.00247506 -0.134005 0
0.00277366 -0.141552 0
0.00119223 -0.150347 0
-0.000916577 -0.159836 0
-0.000828211 -0.167687 0
0.000625956 -0.173523 0
0.0014528 -0.177772 0
0.00197334 -0.181069 0
0.00323851 -0.183881 0
0.00481425 -0.187764 0
0.0055781 -0.191892 0
0.00509065 -0.195139 0
0.00356824 -0.198561 0
0.00138956 -0.203904 0
-0.000931277 -0.211224 0
-0.00275563 -0.219261 0
-0.00365409 -0.227336 0
-0.00362517 -0.235898 0
-0.002942 -0.245467 0
-0.00190097 -0.255717 0
-0.000710293 -0.265712 0
0.00049836 -0.274697 0
0.00163237 -0.28253 0
0.00262785 -0.289497 0
0.00345423 -0.29589 0
0.00410858 -0.301761 0
0.00459613 -0.306955 0
0.00491247 -0.311269 0
0.00504072 -0.314596 0
0.0049637 -0.316968 0
0.00468085 -0.318523 0
0.00421872 -0.319455 0
0.00362969 -0.319952 0
0.00298055 -0.320176 0
0.00233732 -0.320241 0
0.0017524 -0.320229 0
0.00125806 -0.320185 0
0.000866289 -0.320136 0
0.000573165 -0.320093 0
0.000365019 -0.32006 0
0.00022413 -0.320037 0
0.000132901 -0.320022 0
7.62166e-05 -0.320013 0
4.23325e-05 -0.320007 0
2.28017e-05 -0.320004 0
1.19249e-05 -0.320002 0
6.06225e-06 -0.320001 0
2.9989e-06 -0.32 0
1.44501e-06 -0.32 0
6.78831e-07 -0.32 0
3.11182e-07 -0.32 0
1.39311e-07 -0.32 0
6.09545e-08 -0.32 0
2.60847e-08 -0.32 0
1.09254e-08 -0.32 0
4.48155e-09 -0.32 0
1.8014e-09 -0.32 0
7.10065e-10 -0.32 0
2.74493e-10 -0.32 0
1.04225e-10 -0.32 0
3.87936e-11 -0.32 0
1.42251e-11 -0.32 0
5.15901e-12 -0.32 0
1.84948e-12 -0.32 0
6.40454e-13 -0.32 0
1.54802e-13 -0.32 0
1.55077e-14 -0.32 0
1.46223e-15 -0.32 0
5.45137e-16 -0.32 0
-0.00457732 0.00447406 0
-0.00315963 0.00331873 0
-0.000778289 0.00719915 0
-0.000987662 -0.0010423 0
-0.00468088 0.0115018 0
-0.00619677 0.000815308 0
-0.00303911 0.00832029 0
-0.00102868 0.00479667 0
0.00162476 -0.00259152 0
-0.000831919 0.000570616 0
0.000380664 -0.0199171 0
0.00771262 -0.000371835 0
0.00784294 -0.0128589 0
0.00674761 -0.030676 0
0.00853753 -0.0254124 0
0.00460394 -0.0320893 0
0.00595349 -0.0428304 0
0.00888596 -0.0423371 0
0.00579602 -0.052053 0
0.00384336 -0.0584189 0
0.00530227 -0.0561832 0
0.00494725 -0.0670804 0
0.00213566 -0.0781183 0
0.00375086 -0.0765882 0
0.00502211 -0.0728152 0
0.00240305 -0.0829787 0
-0.00131991 -0.0979059 0
-0.00355429 -0.106008 0
-0.0017088 -0.112275 0
0.00191944 -0.120078 0
0.00242766 -0.128174 0
0.00113821 -0.136747 0
0.0013806 -0.144259 0
0.00166684 -0.150853 0
0.00069187 -0.158083 0
0.000269683 -0.166245 0
0.000987911 -0.173479 0
0.00153941 -0.178933 0
0.00181217 -0.183096 0
0.0028755 -0.185697 0
0.00465311 -0.188213 0
0.00581062 -0.190932 0
0.00540651 -0.193608 0
0.00363156 -0.197089 0
0.00123423 -0.202592 0
-0.00109038 -0.210135 0
-0.00285379 -0.218707 0
-0.0037832 -0.227606 0
-0.00383045 -0.236911 0
-0.00314165 -0.246789 0
-0.00198684 -0.256864 0
-0.000657098 -0.266417 0
0.000626889 -0.274974 0
0.00174774 -0.282562 0
0.00267867 -0.289485 0
0.0034431 -0.295952 0
0.00406807 -0.301912 0
0.00455773 -0.307138 0
0.00489123 -0.31141 0
0.00503657 -0.314639 0
0.00496984 -0.316893 0
0.00469086 -0.318346 0
0.00422929 -0.319212 0
0.00364011 -0.319686 0
0.00299119 -0.31992 0
0.00234837 -0.32002 0
0.00176357 -0.320051 0
0.00126869 -0.320052 0
0.000875697 -0.320042 0
0.000580927 -0.32003 0
0.000371007 -0.32002 0
0.000228475 -0.320012 0
0.000135882 -0.320007 0
7.81595e-05 -0.320004 0
4.35404e-05 -0.320002 0
2.35207e-05 -0.320001 0
1.2336e-05 -0.320001 0
6.2886e-06 -0.32 0
3.1192e-06 -0.32 0
1.50686e-06 -0.32 0
7.09647e-07 -0.32 0
3.26086e-07 -0.32 0
1.46318e-07 -0.32 0
6.41606e-08 -0.32 0
2.75149e-08 -0.32 0
1.15474e-08 -0.32 0
4.7459e-09 -0.32 0
1.91132e-09 -0.32 0
7.54647e-10 -0.32 0
2.92296e-10 -0.32 0
1.11024e-10 -0.32 0
4.15187e-11 -0.32 0
1.52907e-11 -0.32 0
5.48841e-12 -0.32 0
1.98467e-12 -0.32 0
6.90258e-13 -0.32 0
1.76354e-13 -0.32 0
2.1059e-14 -0.32 0
1.48935e-15 -0.32 0
-1.30776e-15 -0.32 0
-0.00158881 0.000986267 0
-0.00124432 -0.00319175 0
-0.00339959 -0.000215022 0
-0.0046547 -0.0106984 0
-0.00347574 -0.00895899 0
-0.002412 -0.0229689 0
-0.00272299 -0.0202564 0
-0.00179528 -0.0212925 0
0.000427875 -0.0233135 0
-0.000238449 -0.0126492 0
-8.33159e-05 -0.0272968 0
0.000666853 -0.020076 0
0.00118022 -0.0214103 0
0.00812319 -0.0383362 0
0.00419502 -0.0330102 0
0.0010729 -0.0379113 0
0.00496851 -0.043251 0
0.0093388 -0.0481779 0
0.00655652 -0.0502724 0
0.00324814 -0.0596798 0
0.00780451 -0.0643854 0
0.00972745 -0.0630856 0
0.00402276 -0.0690814 0
0.00188713 -0.0768278 0
0.00351182 -0.0760201 0
0.00274596 -0.084936 0
-0.0010761 -0.101409 0
-0.00393397 -0.107783 0
-0.00157134 -0.110449 0
0.00254367 -0.116886 0
0.00198236 -0.127222 0
-0.000963169 -0.138284 0
-0.000685072 -0.146751 0
0.00163406 -0.152204 0
0.00256056 -0.157739 0
0.00233847 -0.16581 0
0.00211456 -0.173825 0
0.00172069 -0.179895 0
0.00145526 -0.184569 0
0.00239162 -0.187115 0
0.00438315 -0.188662 0
0.00584581 -0.190088 0
0.00554821 -0.19199 0
0.00368292 -0.195381 0
0.0012166 -0.201129 0
-0.00108012 -0.20904 0
-0.00284755 -0.218178 0
-0.00389737 -0.227854 0
-0.00409184 -0.237903 0
-0.00344052 -0.248161 0
-0.00218261 -0.258127 0
-0.000689826 -0.267238 0
0.00071555 -0.275308 0
0.00186967 -0.282591 0
0.00276573 -0.289445 0
0.00347566 -0.296002 0
0.00406266 -0.302084 0
0.00454093 -0.307371 0
0.00488173 -0.311611 0
0.00504063 -0.314735 0
0.00498496 -0.316857 0
0.00471123 -0.318193 0
0.00424962 -0.318982 0
0.00365723 -0.319425 0
0.00300397 -0.319666 0
0.00235708 -0.319798 0
0.00176906 -0.319873 0
0.00127193 -0.319918 0
0.000877502 -0.319947 0
0.000581881 -0.319966 0
0.000371488 -0.319979 0
0.000228707 -0.319987 0
0.000135988 -0.319993 0
7.82063e-05 -0.319996 0
4.35601e-05 -0.319998 0
2.35286e-05 -0.319999 0
1.2339e-05 -0.319999 0
6.28964e-06 -0.32 0
3.11953e-06 -0.32 0
1.50695e-06 -0.32 0
7.09662e-07 -0.32 0
3.26083e-07 -0.32 0
1.46313e-07 -0.32 0
6.41575e-08 -0.32 0
2.75132e-08 -0.32 0
1.15467e-08 -0.32 0
4.74551e-09 -0.32 0
1.91105e-09 -0.32 0
7.54551e-10 -0.32 0
2.9226e-10 -0.32 0
1.11046e-10 -0.32 0
4.15033e-11 -0.32 0
1.52181e-11 -0.32 0
5.48793e-12 -0.32 0
1.98217e-12 -0.32 0
6.86929e-13 -0.32 0
1.77486e-13 -0.32 0
2.21888e-14 -0.32 0
1.40827e-15 -0.32 0
-4.34542e-17 -0.32 0
0.00086735 -0.000672422 0
-0.000788585 -0.00289483 0
-0.00570639 0.00646692 0
-0.00426218 -0.000333613 0
-0.000186781 0.0131985 0
0.00106545 0.000946473 0
-0.00195974 0.00585927 0
-0.0024228 0.00230412 0
-0.00817007 -0.0043393 0
-0.00337216 0.00477379 0
0.00159015 -0.0113152 0
0.00280229 -0.0145044 0
-0.00329002 -0.02248 0
0.00362693 -0.0196023 0
0.00610667 -0.0298247 0
0.00255088 -0.0268655 0
0.00782924 -0.0440434 0
0.00995398 -0.0406548 0
0.00555311 -0.056942 0
-0.00194941 -0.0633838 0
0.00388113 -0.0554791 0
0.00683269 -0.0583814 0
0.00348057 -0.0660261 0
0.00296821 -0.0759551 0
0.00421601 -0.0832044 0
0.0040503 -0.090638 0
-0.000232737 -0.101037 0
-0.00450916 -0.106864 0
-0.00210899 -0.109275 0
0.00269034 -0.115142 0
0.00182551 -0.125931 0
-0.00224318 -0.138066 0
-0.00247908 -0.148028 0
0.00114672 -0.154293 0
0.0041177 -0.159094 0
0.00453518 -0.166649 0
0.00343152 -0.174149 0
0.00193443 -0.180212 0
0.00109243 -0.185402 0
0.00194814 -0.188221 0
0.00409442 -0.189149 0
0.00573195 -0.189401 0
0.00551311 -0.19044 0
0.00368252 -0.19367 0