<?xml version='1.0' encoding='UTF-8'?>
<VTKFile byte_order='LittleEndian' version='0.1' type = 'UnstructuredGrid'>
<UnstructuredGrid>
<FieldData>
<DataArray type='Float64' Name='Time' NumberOfComponents='1' NumberOfTuples='1' format='ascii'>
2.321
</DataArray>
</FieldData>
<Piece NumberOfCells='808' NumberOfPoints='808'>
<Points>
<DataArray NumberOfComponents='3' type='Float64' Name='position' format='ascii'>
0 0 0
0 0.025 0
0 0.05 0
0 0.075 0
0 0.1 0
0 0.125 0
0 0.15 0
0 0.175 0
0.025 0 0
0.05 0 0
0.075 0 0
0.1 0 0
0.125 0 0
0.15 0 0
0.175 0 0
0.2 0 0
0.225 0 0
0.25 0 0
0.275 0 0
0.3 0 0
0.324137 -0.00352785 0
0.341605 -0.00806488 0
0.375221 -0.0430088 0
0.401552 -0.0627717 0
0.427043 -0.0801002 0
0.453864 -0.0956582 0
0.47817 -0.107529 0
0.502952 -0.122635 0
0.528778 -0.134985 0
0.552755 -0.147556 0
0.57773 -0.161251 0
0.602932 -0.173369 0
0.628578 -0.185194 0
0.652172 -0.197082 0
0.67766 -0.209331 0
0.703989 -0.220372 0
0.726644 -0.231527 0
0.752441 -0.243582 0
0.779083 -0.254509 0
0.802488 -0.264574 0
0.827424 -0.274957 0
0.853232 -0.284841 0
0.877716 -0.294229 0
0.902433 -0.304287 0
0.927583 -0.314312 0
0.952865 -0.323507 0
0.978068 -0.332745 0
1.00243 -0.342184 0
1.0267 -0.350909 0
1.05194 -0.359154 0
1.07723 -0.367744 0
1.10174 -0.376329 0
1.12624 -0.384524 0
1.15132 -0.392655 0
1.17646 -0.400623 0
1.20122 -0.408055 0
1.22574 -0.415225 0
1.25044 -0.422448 0
1.27553 -0.429413 0
1.30092 -0.435864 0
1.32628 -0.442107 0
1.35135 -0.448463 0
1.37614 -0.454755 0
1.40095 -0.460578 0
1.42599 -0.465816 0
1.45119 -0.470685 0
1.47638 -0.475389 0
1.50147 -0.479963 0
1.52651 -0.484388 0
1.55155 -0.48872 0
1.57655 -0.493077 0
1.60146 -0.497482 0
1.62625 -0.50184 0
1.65097 -0.506033 0
1.67571 -0.509995 0
1.70055 -0.513715 0
1.72551 -0.517191 0
1.75058 -0.520402 0
1.77572 -0.523315 0
1.80089 -0.525916 0
1.82605 -0.528213 0
1.8512 -0.530229 0
1.87631 -0.531983 0
1.9014 -0.533485 0
1.92647 -0.534738 0
1.9515 -0.535745 0
1.97651 -0.536523 0
2.00148 -0.537099 0
2.02642 -0.537507 0
2.05133 -0.537785 0
2.07621 -0.537964 0
2.10108 -0.538072 0
2.12593 -0.53813 0
2.15078 -0.538155 0
2.17564 -0.538157 0
2.20051 -0.538145 0
2.22539 -0.538126 0
2.2503 -0.538105 0
2.27522 -0.538083 0
2.30015 -0.538065 0
2.32511 -0.538049 0
2.35007 -0.538037 0
2.37505 -0.538027 0
2.40003 -0.538021 0
2.42502 -0.538016 0
2.45001 -0.538013 0
2.47501 -0.538011 0
2.50001 -0.53801 0
0.0245181 0.0254699 0
0.0497263 0.023511 0
0.075119 0.024077 0
0.100042 0.0238176 0
0.124777 0.0248872 0
0.148987 0.0239038 0
0.174249 0.0249432 0
0.199011 0.0233016 0
0.224257 0.0231516 0
0.247684 0.0207705 0
0.273263 0.0189955 0
0.30202 0.012236 0
0.324266 0.00704671 0
0.351544 -0.00696312 0
0.377203 -0.0238931 0
0.402985 -0.0412498 0
0.428235 -0.0561717 0
0.452809 -0.0689906 0
0.477664 -0.0829987 0
0.503572 -0.0978536 0
0.528401 -0.110706 0
0.552894 -0.123139 0
0.578098 -0.136445 0
0.602627 -0.148584 0
0.627827 -0.161157 0
0.653465 -0.173789 0
0.678232 -0.184747 0
0.702474 -0.195845 0
0.727316 -0.2078 0
0.753152 -0.218934 0
0.778031 -0.229037 0
0.802235 -0.239783 0
0.827526 -0.250451 0
0.852962 -0.260281 0
0.877898 -0.270147 0
0.902737 -0.280109 0
0.927566 -0.289653 0
0.952674 -0.298756 0
0.977751 -0.307968 0
1.00231 -0.317282 0
1.02696 -0.326206 0
1.0521 -0.33465 0
1.07708 -0.343015 0
1.10163 -0.351475 0
1.12632 -0.359868 0
1.15134 -0.36802 0
1.17634 -0.375822 0
1.20113 -0.383234 0
1.22581 -0.39045 0
1.25058 -0.397651 0
1.2756 -0.404624 0
1.30086 -0.411163 0
1.32617 -0.417443 0
1.35128 -0.423695 0
1.37617 -0.429845 0
1.40103 -0.435625 0
1.42603 -0.440914 0
1.45117 -0.445825 0
1.47633 -0.450519 0
1.50144 -0.455065 0
1.5265 -0.459494 0
1.55153 -0.463843 0
1.57652 -0.468188 0
1.60142 -0.472548 0
1.62622 -0.476857 0
1.65097 -0.481026 0
1.67574 -0.484994 0
1.70058 -0.488736 0
1.72554 -0.492235 0
1.7506 -0.495458 0
1.77573 -0.498376 0
1.80089 -0.500974 0
1.82605 -0.503264 0
1.85119 -0.505268 0
1.87631 -0.507009 0
1.9014 -0.508496 0
1.92646 -0.509735 0
1.9515 -0.51073 0
1.9765 -0.511498 0
2.00148 -0.512066 0
2.02642 -0.512467 0
2.05133 -0.512738 0
2.07621 -0.512912 0
2.10108 -0.513017 0
2.12593 -0.513075 0
2.15079 -0.513101 0
2.17565 -0.513107 0
2.20051 -0.513101 0
2.2254 -0.513089 0
2.2503 -0.513075 0
2.27522 -0.51306 0
2.30016 -0.513047 0
2.32511 -0.513036 0
2.35007 -0.513028 0
2.37505 -0.513021 0
2.40003 -0.513017 0
2.42502 -0.513014 0
2.45001 -0.513011 0
2.47501 -0.51301 0
2.50001 -0.513009 0
0.02505 0.0494582 0
0.0494808 0.0483196 0
0.0739937 0.0490295 0
0.0989927 0.0466339 0
0.123612 0.0468846 0
0.148414 0.0440832 0
0.173604 0.0452007 0
0.198327 0.0415236 0
0.224949 0.0405036 0
0.249098 0.0374135 0
0.274099 0.0371016 0
0.300908 0.0303255 0
0.327169 0.0193103 0
0.354048 0.0118032 0
0.377729 -0.00451014 0
0.403393 -0.0200095 0
0.428473 -0.0317126 0
0.452783 -0.0468334 0
0.478086 -0.0604488 0
0.503552 -0.0739929 0
0.527767 -0.0864593 0
0.552874 -0.100231 0
0.578834 -0.112601 0
0.603441 -0.123393 0
0.627346 -0.135196 0
0.65244 -0.148396 0
0.678105 -0.160802 0
0.702955 -0.171722 0
0.727829 -0.182887 0
0.753005 -0.193648 0
0.777648 -0.204283 0
0.802382 -0.215194 0
0.827551 -0.225497 0
0.85269 -0.235636 0
0.877837 -0.24571 0
0.90282 -0.2554 0
0.927605 -0.264795 0
0.952629 -0.273958 0
0.977621 -0.283022 0
1.00226 -0.292273 0
1.02707 -0.301335 0
1.05217 -0.309802 0
1.077 -0.318097 0
1.10158 -0.326567 0
1.12636 -0.335007 0
1.15136 -0.343161 0
1.17628 -0.350933 0
1.20108 -0.35833 0
1.22586 -0.365552 0
1.25071 -0.372733 0
1.27568 -0.379721 0
1.30084 -0.386342 0
1.32608 -0.392673 0
1.35122 -0.398861 0
1.37619 -0.404874 0
1.4011 -0.410579 0
1.42607 -0.4159 0
1.45116 -0.420871 0
1.47629 -0.425577 0
1.50141 -0.43012 0
1.52649 -0.434557 0
1.55153 -0.438919 0
1.5765 -0.443255 0
1.60139 -0.447582 0
1.62621 -0.451854 0
1.65098 -0.456001 0
1.67576 -0.459971 0
1.70061 -0.46373 0
1.72556 -0.46725 0
1.75061 -0.470491 0
1.77573 -0.473421 0
1.80088 -0.476024 0
1.82604 -0.478311 0
1.85119 -0.480307 0
1.8763 -0.482035 0
1.9014 -0.483509 0
1.92646 -0.484734 0
1.9515 -0.485719 0
1.9765 -0.486477 0
2.00147 -0.487037 0
2.02641 -0.487431 0
2.05133 -0.487695 0
2.07621 -0.487864 0
2.10108 -0.487966 0
2.12593 -0.488024 0
2.15079 -0.488052 0
2.17565 -0.488062 0
2.20052 -0.488061 0
2.2254 -0.488056 0
2.2503 -0.488047 0
2.27522 -0.488039 0
2.30016 -0.488031 0
2.32511 -0.488025 0
2.35008 -0.48802 0
2.37505 -0.488016 0
2.40003 -0.488013 0
2.42502 -0.488011 0
2.45001 -0.48801 0
2.47501 -0.488009 0
2.50001 -0.488009 0
0.0249116 0.0730057 0
0.0496666 0.0720831 0
0.0743897 0.0712115 0
0.0988965 0.0690356 0
0.123845 0.0687391 0
0.148941 0.0663793 0
0.173869 0.0661269 0
0.198442 0.0627851 0
0.223991 0.0627011 0
0.248733 0.057381 0
0.27515 0.0553396 0
0.301375 0.0500271 0
0.326384 0.0398834 0
0.353557 0.0309023 0
0.378554 0.0165308 0
0.403691 0.004347 0
0.429441 -0.00942406 0
0.453213 -0.0241735 0
0.478817 -0.0374213 0
0.504063 -0.0485715 0
0.528058 -0.0628428 0
0.553112 -0.074669 0
0.577961 -0.086686 0
0.602667 -0.100042 0
0.62781 -0.111277 0
0.65274 -0.12327 0
0.677775 -0.135559 0
0.70288 -0.146394 0
0.727887 -0.157773 0
0.752855 -0.169064 0
0.777676 -0.179819 0
0.802618 -0.190495 0
0.827621 -0.200859 0
0.852552 -0.210877 0
0.877614 -0.220677 0
0.902661 -0.230435 0
0.927636 -0.240019 0
0.952713 -0.249218 0
0.977665 -0.258213 0
1.00231 -0.267262 0
1.02706 -0.276307 0
1.05206 -0.28491 0
1.07691 -0.293187 0
1.10159 -0.301596 0
1.12643 -0.310079 0
1.15138 -0.318255 0
1.17623 -0.326026 0
1.20102 -0.333461 0
1.22588 -0.340678 0
1.25081 -0.347814 0
1.27579 -0.354805 0
1.30085 -0.361495 0
1.32601 -0.367872 0
1.35115 -0.37401 0
1.37619 -0.37992 0
1.40114 -0.38555 0
1.4261 -0.390864 0
1.45115 -0.39587 0
1.47626 -0.400609 0
1.50139 -0.405167 0
1.52648 -0.409614 0
1.55152 -0.41398 0
1.57648 -0.418306 0
1.60137 -0.422609 0
1.62619 -0.426854 0
1.65098 -0.430984 0
1.67577 -0.434951 0
1.70063 -0.438722 0
1.72558 -0.442263 0
1.75062 -0.445526 0
1.77573 -0.448472 0
1.80088 -0.451083 0
1.82604 -0.45337 0
1.85118 -0.455357 0
1.8763 -0.457072 0
1.9014 -0.458532 0
1.92646 -0.459744 0
1.9515 -0.460716 0
1.9765 -0.461465 0
2.00148 -0.462015 0
2.02642 -0.4624 0
2.05133 -0.462656 0
2.07621 -0.462819 0
2.10108 -0.462917 0
2.12594 -0.462973 0
2.15079 -0.463002 0
2.17565 -0.463016 0
2.20052 -0.463021 0
2.2254 -0.463022 0
2.25031 -0.46302 0
2.27523 -0.463018 0
2.30016 -0.463016 0
2.32511 -0.463014 0
2.35008 -0.463012 0
2.37505 -0.463011 0
2.40003 -0.46301 0
2.42502 -0.463009 0
2.45001 -0.463009 0
2.47501 -0.463008 0
2.50001 -0.463008 0
0.0245705 0.0979765 0
0.0496935 0.0963719 0
0.0740542 0.0950336 0
0.0985828 0.093432 0
0.124327 0.0934148 0
0.149244 0.08959 0
0.173738 0.089648 0
0.19933 0.0866729 0
0.224351 0.085129 0
0.249723 0.0806435 0
0.275467 0.0745967 0
0.301065 0.0703023 0
0.327947 0.0606603 0
0.353808 0.0521635 0
0.379296 0.0382838 0
0.404194 0.0272903 0
0.429473 0.0128445 0
0.453327 0.000801738 0
0.478755 -0.0118315 0
0.503952 -0.0238772 0
0.52804 -0.0364482 0
0.553373 -0.0507466 0
0.578398 -0.0623417 0
0.602683 -0.0751537 0
0.627965 -0.0876847 0
0.653529 -0.098926 0
0.677859 -0.109593 0
0.702154 -0.120953 0
0.727489 -0.133317 0
0.752897 -0.144721 0
0.777771 -0.155101 0
0.802608 -0.165667 0
0.827561 -0.17613 0
0.852537 -0.186035 0
0.877586 -0.195604 0
0.902579 -0.205353 0
0.927578 -0.21532 0
0.95274 -0.224639 0
0.977756 -0.233376 0
1.0024 -0.242252 0
1.02702 -0.251325 0
1.05188 -0.260051 0
1.0768 -0.268302 0
1.10164 -0.276631 0
1.1265 -0.285064 0
1.15138 -0.293281 0
1.17619 -0.301162 0
1.20099 -0.30865 0
1.2259 -0.315854 0
1.2509 -0.322956 0
1.27589 -0.329922 0
1.30089 -0.336616 0
1.32596 -0.343024 0
1.35108 -0.349161 0
1.37615 -0.355007 0
1.40114 -0.360552 0
1.42611 -0.365829 0
1.45114 -0.370859 0
1.47625 -0.375642 0
1.50138 -0.380226 0
1.52648 -0.384679 0
1.55152 -0.389041 0
1.57647 -0.393357 0
1.60136 -0.397643 0
1.62618 -0.401867 0
1.65098 -0.405979 0
1.67578 -0.409941 0
1.70064 -0.413723 0
1.72558 -0.417285 0
1.75062 -0.420572 0
1.77573 -0.423538 0
1.80088 -0.426158 0
1.82604 -0.428442 0
1.85118 -0.43042 0
1.8763 -0.432122 0
1.9014 -0.433566 0
1.92646 -0.434764 0
1.9515 -0.435724 0
1.97651 -0.436461 0
2.00148 -0.436999 0
2.02642 -0.437374 0
2.05133 -0.437621 0
2.07622 -0.437776 0
2.10108 -0.437869 0
2.12594 -0.437922 0
2.15079 -0.437953 0
2.17565 -0.43797 0
2.20052 -0.437981 0
2.2254 -0.437988 0
2.25031 -0.437993 0
2.27523 -0.437997 0
2.30016 -0.438 0
2.32511 -0.438002 0
2.35008 -0.438004 0
2.37505 -0.438005 0
2.40003 -0.438006 0
2.42502 -0.438007 0
2.45001 -0.438007 0
2.47501 -0.438008 0
2.50001 -0.438008 0
0.024277 0.124454 0
0.0490921 0.123439 0
0.0734021 0.122857 0
0.0989507 0.121464 0
0.124472 0.121923 0
0.148711 0.118346 0
0.173487 0.11843 0
0.200026 0.11413 0
0.224589 0.109678 0
0.250272 0.106298 0
0.275953 0.0998149 0
0.301384 0.0933316 0
0.327868 0.0838926 0
0.353725 0.0737849 0
0.378831 0.0615496 0
0.404032 0.0503446 0
0.429157 0.037325 0
0.453753 0.0253106 0
0.478873 0.0119717 0
0.503444 -0.000895562 0
0.528498 -0.0132632 0
0.553677 -0.0272705 0
0.578452 -0.0363925 0
0.603144 -0.0489549 0
0.6279 -0.0628532 0
0.65321 -0.0740264 0
0.677905 -0.0852415 0
0.702467 -0.096871 0
0.727623 -0.108623 0
0.752644 -0.119781 0
0.777453 -0.130177 0
0.80243 -0.140782 0
0.827483 -0.15139 0
0.852554 -0.161167 0
0.877686 -0.170533 0
0.902653 -0.180523 0
0.927528 -0.190594 0
0.952636 -0.199852 0
0.977756 -0.208547 0
1.00249 -0.217346 0
1.02703 -0.226448 0
1.05177 -0.235228 0
1.07671 -0.243437 0
1.10163 -0.251636 0
1.12652 -0.259973 0
1.15137 -0.26827 0
1.17615 -0.276302 0
1.20098 -0.283881 0
1.22594 -0.291105 0
1.25097 -0.298149 0
1.27596 -0.305029 0
1.30093 -0.311695 0
1.32595 -0.318133 0
1.35103 -0.324302 0
1.3761 -0.330118 0
1.40111 -0.335583 0
1.4261 -0.340808 0
1.45114 -0.345856 0
1.47625 -0.350683 0
1.50139 -0.355294 0
1.52649 -0.359749 0
1.55152 -0.364099 0
1.57647 -0.368403 0
1.60135 -0.372677 0
1.62617 -0.376884 0
1.65097 -0.38098 0
1.67577 -0.384936 0
1.70063 -0.38873 0
1.72557 -0.392317 0
1.75061 -0.395633 0
1.77573 -0.398618 0
1.80088 -0.401246 0
1.82604 -0.403527 0
1.85118 -0.405493 0
1.8763 -0.407181 0
1.9014 -0.408611 0
1.92647 -0.409795 0
1.95151 -0.410742 0
1.97651 -0.411466 0
2.00149 -0.411991 0
2.02643 -0.412353 0
2.05134 -0.412589 0
2.07622 -0.412735 0
2.10109 -0.412822 0
2.12594 -0.412873 0
2.15079 -0.412904 0
2.17565 -0.412925 0
2.20052 -0.412941 0
2.2254 -0.412954 0
2.2503 -0.412966 0
2.27522 -0.412976 0
2.30016 -0.412984 0
2.32511 -0.412991 0
2.35008 -0.412996 0
2.37505 -0.413 0
2.40003 -0.413003 0
2.42502 -0.413005 0
2.45001 -0.413006 0
2.47501 -0.413007 0
2.50001 -0.413007 0
0.0245335 0.148042 0
0.049559 0.146031 0
0.0743389 0.144382 0
0.0993226 0.14221 0
0.123703 0.140737 0
0.149158 0.138582 0
0.174667 0.134424 0
0.198667 0.133345 0
0.225176 0.130848 0
0.250578 0.125135 0
0.275798 0.120579 0
0.302181 0.112377 0
0.326958 0.105562 0
0.352972 0.0940651 0
0.377924 0.0850879 0
0.403744 0.0723884 0
0.428544 0.0621951 0
0.454262 0.0480175 0
0.47927 0.0370213 0
0.50405 0.0225737 0
0.528775 0.0120792 0
0.553481 0.000340469 0
0.577939 -0.0141579 0
0.603092 -0.0252476 0
0.627902 -0.0363901 0
0.652639 -0.0492691 0
0.677895 -0.0612618 0
0.703086 -0.0725927 0
0.727802 -0.0841511 0
0.752379 -0.0947928 0
0.777347 -0.105117 0
0.802444 -0.115997 0
0.827348 -0.126726 0
0.852416 -0.136453 0
0.877714 -0.145763 0
0.902718 -0.155717 0
0.927496 -0.165776 0
0.952526 -0.174973 0
0.977698 -0.183763 0
1.00256 -0.192657 0
1.02711 -0.201641 0
1.05175 -0.210468 0
1.07663 -0.218669 0
1.10158 -0.226598 0
1.12649 -0.234841 0
1.15133 -0.243331 0
1.17613 -0.251529 0
1.20099 -0.259171 0
1.22597 -0.266401 0
1.251 -0.273367 0
1.276 -0.280125 0
1.30096 -0.28676 0
1.32595 -0.293264 0
1.35098 -0.299469 0
1.37603 -0.30524 0
1.40106 -0.310647 0
1.42608 -0.31584 0
1.45114 -0.320887 0
1.47626 -0.325749 0
1.50141 -0.330394 0
1.52651 -0.334839 0
1.55153 -0.339166 0
1.57647 -0.343457 0
1.60135 -0.347721 0
1.62617 -0.351912 0
1.65096 -0.355991 0
1.67576 -0.359944 0
1.70061 -0.363755 0
1.72555 -0.367373 0
1.7506 -0.370719 0
1.77572 -0.373723 0
1.80088 -0.376354 0
1.82604 -0.378625 0
1.85119 -0.380578 0
1.8763 -0.38225 0
1.9014 -0.383666 0
1.92647 -0.384838 0
1.95151 -0.385771 0
1.97652 -0.38648 0
2.0015 -0.386991 0
2.02644 -0.387338 0
2.05135 -0.387561 0
2.07623 -0.387697 0
2.10109 -0.387777 0
2.12594 -0.387825 0
2.15079 -0.387856 0
2.17565 -0.38788 0
2.20052 -0.387901 0
2.2254 -0.387921 0
2.2503 -0.387939 0
2.27522 -0.387955 0
2.30016 -0.387968 0
2.32511 -0.38798 0
2.35007 -0.387988 0
2.37505 -0.387995 0
2.40003 -0.387999 0
2.42502 -0.388002 0
2.45001 -0.388005 0
2.47501 -0.388006 0
2.50001 -0.388007 0
0.024621 0.173253 0
0.0488258 0.172667 0
0.0741685 0.171423 0
0.0988301 0.170403 0
0.12426 0.168207 0
0.148544 0.166499 0
0.17426 0.164957 0
0.200523 0.160168 0
0.224216 0.156568 0
0.251601 0.151662 0
0.275828 0.145705 0
0.301902 0.138708 0
0.328472 0.130045 0
0.352347 0.12065 0
0.379573 0.109461 0
0.404373 0.0979706 0
0.428363 0.0845753 0
0.454551 0.0737458 0
0.478857 0.0605127 0
0.503098 0.0478552 0
0.52912 0.0355013 0
0.553468 0.0228807 0
0.57777 0.0102586 0
0.603437 -0.0010892 0
0.628349 -0.0127298 0
0.652279 -0.0251799 0
0.677589 -0.0364025 0
0.703214 -0.0475018 0
0.727467 -0.0593754 0
0.752075 -0.0707896 0
0.777818 -0.0810202 0
0.802941 -0.0913885 0
0.827158 -0.102004 0
0.852006 -0.111963 0
0.87756 -0.121451 0
0.902747 -0.131115 0
0.927508 -0.140959 0
0.952443 -0.150403 0
0.977661 -0.159248 0
1.00265 -0.168094 0
1.02718 -0.177115 0
1.05172 -0.185858 0
1.07653 -0.193968 0
1.10149 -0.20173 0
1.12645 -0.209955 0
1.15131 -0.218623 0
1.17611 -0.226961 0
1.201 -0.234619 0
1.226 -0.241779 0
1.25102 -0.248642 0
1.276 -0.255341 0
1.30097 -0.261979 0
1.32595 -0.268508 0
1.35096 -0.274723 0
1.37599 -0.280466 0
1.40101 -0.285814 0
1.42604 -0.290969 0
1.45112 -0.296031 0
1.47627 -0.300926 0
1.50143 -0.305572 0
1.52653 -0.309982 0
1.55155 -0.314275 0
1.57649 -0.318548 0
1.60136 -0.3228 0
1.62618 -0.326972 0
1.65096 -0.331032 0
1.67574 -0.334983 0
1.70058 -0.338816 0
1.72552 -0.34247 0
1.75057 -0.345848 0
1.77571 -0.348866 0
1.80088 -0.35149 0
1.82605 -0.353745 0
1.85119 -0.355677 0
1.87631 -0.357332 0
1.9014 -0.358734 0
1.92648 -0.359891 0
1.95152 -0.36081 0
1.97653 -0.361502 0
2.00151 -0.361995 0
2.02645 -0.362325 0
2.05136 -0.362532 0
2.07623 -0.362656 0
2.10109 -0.362728 0
2.12594 -0.362773 0
2.15079 -0.362804 0
2.17565 -0.362832 0
2.20051 -0.362858 0
2.2254 -0.362884 0
2.2503 -0.362909 0
2.27522 -0.362931 0
2.30015 -0.362951 0
2.32511 -0.362967 0
2.35007 -0.362979 0
2.37505 -0.362989 0
2.40003 -0.362995 0
2.42502 -0.363 0
2.45001 -0.363003 0
2.47501 -0.363005 0
2.50001 -0.363006 0
</DataArray>
</Points>
<PointData>
<DataArray NumberOfComponents='1' type='Int32' Name='Particle Type' format='ascii'>
0
0
0
0
0
0
0
0
0
0
0
0
0
0
0
0
0
0
0
0
0
0
1
1
1
1
1
1
1
1
1
1
1
1
1
1
1
1
1
1
1
1
1
1
1
1
1
1
1
1
1
1
1
1
1
1
1
1
1
1
1
1
1
1
1
1
1
1
1
1
1
1
1
1
1
1
1
1
1
1
1
1
1
1
1
1
1
1
1
1
1
1
1
1
1
1
1
1
1
1
1
1
1
1
1
1
1
1
1
1
1
1
1
1
1
1
1
1
1
1
1
1
1
1
1
1
1
1
1
1
1
1
1
1
1
1
1
1
1
1
1
1
1
1
1
1
1
1
1
1
1
1
1
1
1
1
1
1
1
1
1
1
1
1
1
1
1
1
1
1
1
1
1
1
1
1
1
1
1
1
1
1
1
1
1
1
1
1
1
1
1
1
1
1
1
1
1
1
1
1
1
1
1
1
1
1
1
1
1
1
1
1
1
1
1
1
1
1
1
1
1
1
1
1
1
1
1
1
1
1
1
1
1
1
1
1
1
1
1
1
1
1
1
1
1
1
1
1
1
1
1
1
1
1
1
1
1
1
1
1
1
1
1
1
1
1
1
1
1
1
1
1
1
1
1
1
1
1
1
1
1
1
1
1
1
1
1
1
1
1
1
1
1
1
1
1
1
1
1
1
1
1
1
1
1
1
1
1
1
1
1
1
1
1
1
1
1
1
1
1
1
1
1
1
1
1
1
1
1
1
1
1
1
1
1
1
1
1
1
1
1
1
1
1
1
1
1
1
1
1
1
1
1
1
1
1
1
1
1
1
1
1
1
1
1
1
1
1
1
1
1
1
1
1
1
1
1
1
1
1
1
1
1
1
1
1
1
1
1
1
1
1
1
1
1
1
1
1
1
1
1
1
1
1
1
1
1
1
1
1
1
1
1
1
1
1
1
1
1
1
1
1
1
1
1
1
1
1
1
1
1
1
1
1
1
1
1
1
1
1
1
1
1
1
1
1
1
1
1
1
1
1
1
1
1
1
1
1
1
1
1
1
1
1
1
1
1
1
1
1
1
1
1
1
1
1
1
1
1
1
1
1
1
1
1
1
1
1
1
1
1
1
1
1
1
1
1
1
1
1
1
1
1
1
1
1
1
1
1
1
1
1
1
1
1
1
1
1
1
1
1
1
1
1
1
1
1
1
1
1
1
1
1
1
1
1
1
1
1
1
1
1
1
1
1
1
1
1
1
1
1
1
1
1
1
1
1
1
1
1
1
1
1
1
1
1
1
1
1
1
1
1
1
1
1
1
1
1
1
1
1
1
1
1
1
1
1
1
1
1
1
1
1
1
1
1
1
1
1
1
1
1
1
1
1
1
1
1
1
1
1
1
1
1
1
1
1
1
1
1
1
1
1
1
1
1
1
1
1
1
1
1
1
1
1
1
1
1
1
1
1
1
1
1
1
1
1
1
1
1
1
1
1
1
1
1
1
1
1
1
1
1
1
1
1
1
1
1
1
1
1
1
1
1
1
1
1
1
1
1
1
1
1
1
1
1
1
1
1
1
1
1
1
1
1
1
1
1
1
1
1
1
1
1
1
1
1
1
1
1
1
1
1
1
1
1
1
1
1
1
1
1
1
1
1
1
1
1
1
1
1
1
1
1
1
1
1
1
1
1
1
1
1
1
1
1
1
1
1
1
1
1
1
1
1
1
1
1
1
1
1
1
1
1
1
1
1
1
1
1
1
1
1
1
1
1
1
1
1
1
1
1
1
1
1
1
1
1
1
1
1
1
1
1
1
1
1
1
1
1
1
1
1
1
1
1
1
1
</DataArray>
<DataArray NumberOfComponents='3' type='Float64' Name='Velocity' format='ascii'>
0 0 0
0 0 0
0 0 0
0 0 0
0 0 0
0 0 0
0 0 0
0 0 0
0 0 0
0 0 0
0 0 0
0 0 0
0 0 0
0 0 0
0 0 0
0 0 0
0 0 0
0 0 0
0 0 0
0 0 0
-0.0107857 -0.0842871 0
-0.0259274 -0.0472143 0
0.0131956 -0.0419144 0
0.00784228 0.00234714 0
-0.0353642 0.0285024 0
-0.0241562 -0.0832513 0
0.0339542 -0.0638286 0
-0.0237712 -0.0377596 0
0.00816178 -0.106391 0
0.0164405 -0.0423524 0
-0.0100914 -0.0671879 0
-0.0232727 -0.0961332 0
0.00666399 -0.10392 0
0.0269583 -0.085161 0
-0.0627712 -0.0967411 0
0.0184816 -0.123018 0
0.0339416 -0.0907084 0
-0.0738785 -0.0954687 0
-0.00211616 -0.141315 0
0.03122 -0.148962 0
-0.0270806 -0.149289 0
-0.00487283 -0.171917 0
0.0139844 -0.163714 0
-0.00540464 -0.143839 0
-0.013224 -0.160799 0
-0.0152393 -0.177103 0
0.00292891 -0.170273 0
0.0234429 -0.180483 0
0.00476501 -0.203569 0
-0.0161539 -0.203382 0
-0.000103308 -0.195239 0
0.0150117 -0.204434 0
0.00299012 -0.21186 0
-0.00874039 -0.213013 0
-0.00141316 -0.224911 0
0.0109453 -0.238624 0
0.0115395 -0.239571 0
0.000180035 -0.241554 0
-0.0124515 -0.255546 0
-0.0165163 -0.268003 0
-0.00972711 -0.267601 0
0.00086166 -0.264626 0
0.00501733 -0.272639 0
8.59025e-05 -0.290604 0
-0.00702902 -0.306366 0
-0.00913121 -0.314595 0
-0.00634041 -0.319025 0
-0.00334345 -0.323462 0
-0.00243503 -0.32766 0
-0.00188035 -0.328659 0
0.000559763 -0.327094 0
0.00464313 -0.326783 0
0.00809888 -0.330133 0
0.00889332 -0.336503 0
0.0066857 -0.343974 0
0.0026579 -0.351547 0
-0.00151518 -0.359506 0
-0.00459057 -0.368364 0
-0.00612512 -0.37798 0
-0.00633556 -0.387645 0
-0.00573258 -0.396729 0
-0.00479378 -0.405104 0
-0.00379977 -0.413043 0
-0.00282917 -0.420858 0
-0.00184269 -0.428604 0
-0.000781578 -0.436049 0
0.000367509 -0.442824 0
0.00155875 -0.448618 0
0.00270721 -0.45329 0
0.00371811 -0.456875 0
0.0045102 -0.459522 0
0.00502949 -0.461423 0
0.00525482 -0.462754 0
0.00519775 -0.463658 0
0.00489788 -0.46424 0
0.00441473 -0.464578 0
0.00381734 -0.464736 0
0.00317365 -0.464766 0
0.00254171 -0.464713 0
0.0019643 -0.464614 0
0.00146733 -0.464498 0
0.00106133 -0.464384 0
0.000745002 -0.464283 0
0.000509436 -0.4642 0
0.000342095 -0.464136 0
0.000229977 -0.464089 0
0.000161539 -0.464057 0
0.000126693 -0.464039 0
0.00819892 -0.0214945 0
-0.00464245 -0.0297371 0
-0.0236646 -0.0397865 0
-0.0245011 -0.0238056 0
-0.00488447 -0.125835 0
-0.0260172 -0.112053 0
-0.0179267 -0.169635 0
0.0275043 -0.110762 0
-0.0120448 -0.145311 0
0.0411854 -0.0189135 0
0.0620129 -0.107278 0
-0.101701 -0.0720592 0
-0.0196467 -0.0175695 0
-0.00538507 -0.0781917 0
-0.0357162 -0.0575131 0
0.00049458 -0.0839242 0
0.0197333 -0.140374 0
0.0251418 -0.114049 0
-0.0193389 -0.0267945 0
-0.0236655 -0.037712 0
0.0157742 -0.0853064 0
-0.00218566 -0.0574875 0
7.48666e-05 -0.0520867 0
-0.00160625 -0.0686031 0
-0.0367464 -0.0492455 0
-0.0156975 -0.101429 0
0.0237662 -0.133848 0
0.0172999 -0.100011 0
-0.0248689 -0.0997153 0
-0.0221082 -0.143878 0
0.0188691 -0.144983 0
0.00223041 -0.122112 0
-0.0252133 -0.143269 0
-0.0119483 -0.156857 0
-0.000574295 -0.151893 0
0.00268127 -0.159897 0
-0.00145363 -0.176168 0
-0.00900188 -0.180155 0
0.00171517 -0.173305 0
0.0105058 -0.178561 0
-0.00251351 -0.193845 0
-0.00788261 -0.203943 0
0.00607421 -0.202901 0
0.010922 -0.20181 0
0.000485008 -0.206592 0
-0.00485999 -0.21653 0
0.000525863 -0.228459 0
0.006755 -0.237644 0
0.00712916 -0.23953 0
0.000916347 -0.242192 0
-0.0083192 -0.253611 0
-0.0134221 -0.265168 0
-0.00998173 -0.268699 0
-0.00195038 -0.269326 0
0.00245265 -0.276139 0
4.53404e-05 -0.290421 0
-0.00497642 -0.304769 0
-0.0073122 -0.314256 0
-0.00618762 -0.31995 0
-0.00417183 -0.324032 0
-0.00284802 -0.327136 0
-0.00147232 -0.328474 0
0.00106618 -0.328047 0
0.00448122 -0.328398 0
0.00723616 -0.331357 0
0.00788397 -0.336741 0
0.00608766 -0.343411 0
0.00265669 -0.350741 0
-0.00109791 -0.358885 0
-0.00406795 -0.368061 0
-0.00572734 -0.377949 0
-0.00613638 -0.387819 0
-0.00569297 -0.397063 0
-0.00483227 -0.405556 0
-0.00384514 -0.413555 0
-0.0028468 -0.421366 0
-0.00183331 -0.429064 0
-0.000763565 -0.436447 0
0.000375816 -0.443168 0
0.00154771 -0.448921 0
0.00267605 -0.453555 0
0.00367122 -0.457092 0
0.00445378 -0.459674 0
0.00496979 -0.461491 0
0.00519765 -0.462732 0
0.00514825 -0.46355 0
0.00486009 -0.464063 0
0.00439103 -0.464356 0
0.00380808 -0.464494 0
0.0031772 -0.464527 0
0.00255504 -0.464494 0
0.00198379 -0.464427 0
0.00148948 -0.464346 0
0.00108335 -0.464266 0
0.00076502 -0.464195 0
0.000526533 -0.464138 0
0.000356133 -0.464093 0
0.000241414 -0.464061 0
0.000171194 -0.46404 0
0.000135172 -0.464029 0
-0.0238954 0.0497575 0
0.0091863 0.0662573 0
0.0248837 0.0771379 0
0.0222917 0.0793424 0
0.0206946 0.148668 0
-0.016241 0.188059 0
0.00472661 0.149519 0
0.00136788 0.229729 0
-0.0275994 0.0825703 0
-0.0266977 0.10859 0
0.0668228 -0.0326072 0
0.0131837 0.149843 0
-0.0507615 0.0597102 0
0.120366 -0.0869913 0
-0.028898 0.103132 0
-0.0154908 -0.0860635 0
0.0158203 -0.0575235 0
0.010215 -0.00612306 0
-0.0266323 -0.0359456 0
0.00170785 -0.0599911 0
0.00430047 -0.0539652 0
-0.0415689 -0.0457397 0
-0.0249444 -0.134121 0
0.0339265 -0.132991 0
0.0203992 -0.0653383 0
-0.0287682 -0.0396352 0
-0.0222266 -0.0969383 0
-0.000169104 -0.126366 0
-0.0083569 -0.128197 0
0.000528113 -0.140664 0
0.00993529 -0.123638 0
-0.00553786 -0.1304 0
-0.0123584 -0.143193 0
-0.0117555 -0.14175 0
-0.009445 -0.15423 0
0.0012039 -0.17081 0
0.000958824 -0.178526 0
-0.00551608 -0.182855 0
0.00220216 -0.178623 0
0.00491086 -0.175146 0
-0.00572373 -0.190606 0
-0.00386171 -0.205025 0
0.00873793 -0.202699 0
0.00839431 -0.199382 0
-0.00103167 -0.205743 0
-0.00273817 -0.217036 0
0.00199062 -0.22961 0
0.0045879 -0.238097 0
0.0037543 -0.23996 0
0.00040729 -0.24246 0
-0.00533737 -0.251511 0
-0.0102133 -0.262401 0
-0.00969697 -0.268776 0
-0.00434231 -0.273233 0
0.00023303 -0.28046 0
7.50249e-05 -0.291427 0
-0.00320678 -0.303129 0
-0.00572448 -0.313292 0
-0.00596504 -0.320017 0
-0.00483045 -0.323968 0
-0.00325858 -0.326605 0
-0.00123917 -0.32828 0
0.00142546 -0.328673 0
0.00435573 -0.329535 0
0.00656632 -0.332303 0
0.00708971 -0.337043 0
0.00561496 -0.343099 0
0.00265605 -0.350121 0
-0.000772108 -0.358251 0
-0.00366486 -0.367572 0
-0.00542567 -0.377668 0
-0.00599049 -0.387772 0
-0.0056695 -0.397247 0
-0.0048684 -0.405921 0
-0.00388913 -0.414019 0
-0.00287344 -0.421844 0
-0.00184105 -0.4295 0
-0.00076267 -0.436821 0
0.000375023 -0.443491 0
0.00154011 -0.449209 0
0.00266128 -0.453812 0
0.00365115 -0.457307 0
0.00443051 -0.459827 0
0.00494515 -0.461565 0
0.00517348 -0.462716 0
0.00512659 -0.46345 0
0.00484308 -0.463895 0
0.00438035 -0.464145 0
0.00380448 -0.464265 0
0.00318034 -0.464303 0
0.00256362 -0.464291 0
0.00199596 -0.464254 0
0.00150332 -0.464207 0
0.0010972 -0.464159 0
0.000777746 -0.464117 0
0.000537531 -0.464082 0
0.000365285 -0.464056 0
0.000248959 -0.464037 0
0.000177529 -0.464025 0
0.000140522 -0.464018 0
-0.022551 -0.00950067 0
0.0178104 -0.00513879 0
0.00632851 -0.0287453 0
-0.0323587 -0.00795387 0
-0.00514879 0.0287563 0
-0.0054787 -0.0404137 0
-0.0200379 0.0390167 0
0.0124013 0.00560728 0
0.0188464 -0.0485961 0
-0.0401132 0.13553 0
0.00796925 -0.137211 0
0.0581351 -0.0386188 0
-0.0930967 -0.0609465 0
0.021284 -0.0304836 0
0.010417 -0.0343076 0
-0.0414086 -0.0417733 0
0.00914595 0.0234751 0
0.013898 0.000882424 0
-0.0312651 -0.10288 0
0.0226516 -0.066626 0
0.020104 -0.0512347 0
-0.000319707 -0.125026 0
0.0106513 -0.0486604 0
-0.00812064 -0.0817355 0
-0.00931535 -0.119463 0
-0.00789077 -0.0708879 0
-0.0176534 -0.105623 0
-0.0132543 -0.123378 0
-0.00618336 -0.105499 0
-0.000748471 -0.118497 0
-0.000937218 -0.125902 0
-0.00518473 -0.13321 0
-0.00190246 -0.145439 0
-0.00362349 -0.154597 0
-0.00818387 -0.159325 0
-0.00587671 -0.163154 0
-0.00605985 -0.174153 0
-0.00593656 -0.1828 0
0.00313211 -0.184116 0
0.00687509 -0.181085 0
-0.00165183 -0.188105 0
-0.00260715 -0.201876 0
0.00547823 -0.203953 0
0.00491178 -0.1986 0
-0.00124738 -0.203556 0
-0.000647047 -0.217142 0
0.00358616 -0.229144 0
0.00357848 -0.23747 0
0.000730084 -0.241075 0
-0.00129224 -0.243219 0
-0.00352596 -0.24982 0
-0.0068285 -0.260132 0
-0.00830714 -0.269056 0
-0.00578539 -0.276427 0
-0.00173821 -0.284041 0
-0.000203797 -0.293197 0
-0.00196669 -0.302913 0
-0.00457995 -0.312204 0
-0.00583309 -0.319337 0
-0.00532253 -0.3235 0
-0.00355646 -0.326203 0
-0.00107568 -0.328206 0
0.00168679 -0.329101 0
0.00428001 -0.330304 0
0.00609696 -0.333028 0
0.00652499 -0.337397 0
0.00528083 -0.342979 0
0.00265441 -0.349628 0
-0.000554696 -0.357588 0
-0.00340309 -0.366947 0
-0.00523614 -0.377242 0
-0.00590307 -0.38763 0
-0.00565766 -0.397391 0
-0.00489378 -0.406284 0
-0.00392631 -0.414499 0
-0.00290983 -0.422346 0
-0.00187157 -0.429964 0
-0.000786381 -0.437233 0
0.000358319 -0.443858 0
0.00153057 -0.449545 0
0.00265826 -0.454118 0
0.00365278 -0.457567 0
0.00443419 -0.460017 0
0.00494854 -0.461664 0
0.00517526 -0.462716 0
0.00512674 -0.463358 0
0.00484248 -0.46373 0
0.00438024 -0.463933 0
0.00380586 -0.464034 0
0.00318367 -0.464077 0
0.0025688 -0.464087 0
0.00200245 -0.46408 0
0.00151041 -0.464067 0
0.00110421 -0.464052 0
0.000784173 -0.464039 0
0.0005431 -0.464027 0
0.000369939 -0.464019 0
0.000252799 -0.464012 0
0.000180727 -0.464008 0
0.000143236 -0.464006 0
0.0113691 -0.0262224 0
0.0118631 -0.0155387 0
-0.0207314 -0.000893937 0
0.00512584 -0.00422959 0
0.0352484 -0.0458796 0
0.0236767 -0.100871 0
0.00735688 -0.0802251 0
-0.0169616 -0.0927643 0
-0.0199813 -0.111947 0
-0.0382775 0.0728168 0
6.12558e-06 -0.00200384 0
0.0612593 -0.0427656 0
-0.0521718 -0.0936412 0
-0.0160269 -0.0179657 0
0.000183103 -0.0696312 0
-0.0211927 -0.0418275 0
0.0179588 -0.0565635 0
0.00571522 -0.0973082 0
-0.0273214 -0.0893227 0
0.0108376 -0.0966736 0
0.00356076 -0.0140854 0
-0.0230169 -0.0377545 0
0.0078748 -0.0743378 0
0.000266231 -0.0491352 0
-0.0313266 -0.103814 0
-0.00169797 -0.141456 0
0.0297224 -0.13491 0
0.000849421 -0.0821351 0
-0.026974 -0.0768823 0
-0.01444 -0.12305 0
-0.000613277 -0.138111 0
-0.00169277 -0.134208 0
-0.00246941 -0.147468 0
-0.00457211 -0.16271 0
-0.00635448 -0.165035 0
-0.00540682 -0.153981 0
-0.00928687 -0.160142 0
-0.00941938 -0.186521 0
0.00236587 -0.19339 0
0.0103333 -0.18482 0
0.004957 -0.184725 0
-0.00111221 -0.200012 0
-0.000295704 -0.205565 0
0.000540688 -0.200536 0
-0.000446887 -0.20362 0
0.0015372 -0.213927 0
0.00440256 -0.22594 0
0.00252604 -0.23697 0
-0.00166856 -0.24181 0
-0.0030151 -0.244012 0
-0.00261056 -0.250369 0
-0.00391834 -0.259789 0
-0.00612176 -0.26873 0
-0.00591109 -0.277752 0
-0.00307559 -0.287015 0
-0.000881174 -0.295792 0
-0.00161678 -0.303455 0
-0.00411861 -0.311107 0
-0.00586653 -0.318179 0
-0.00561284 -0.322897 0
-0.00365277 -0.326029 0
-0.00089785 -0.328281 0
0.00188393 -0.3294 0
0.00425046 -0.330827 0
0.00583764 -0.333629 0
0.00622608 -0.337806 0
0.00511723 -0.342976 0
0.00265624 -0.349184 0
-0.000466665 -0.356876 0
-0.00331551 -0.366238 0
-0.00518499 -0.376763 0
-0.00588109 -0.387485 0
-0.00564927 -0.397561 0
-0.00489645 -0.406676 0
-0.00394677 -0.414999 0
-0.00295011 -0.422863 0
-0.0019232 -0.430452 0
-0.000835112 -0.437681 0
0.000325131 -0.444275 0
0.00151888 -0.449937 0
0.0026666 -0.454477 0
0.00367483 -0.457872 0
0.00446236 -0.460242 0
0.0049766 -0.461787 0
0.00519941 -0.462732 0
0.0051455 -0.463273 0
0.00485594 -0.463568 0
0.00438929 -0.463722 0
0.00381163 -0.463803 0
0.00318718 -0.46385 0
0.00257085 -0.463881 0
0.00200361 -0.463906 0
0.00151104 -0.463928 0
0.00110455 -0.463946 0
0.000784351 -0.463961 0
0.000543192 -0.463972 0
0.000369985 -0.463981 0
0.000252822 -0.463988 0
0.00018074 -0.463992 0
0.000143244 -0.463994 0
-0.00553093 -0.00302779 0
-0.00753256 -0.0199002 0
0.00257577 -0.0120806 0
0.0494653 -0.0340735 0
-0.0390084 0.0158792 0