<?xml version='1.0' encoding='UTF-8'?>
<VTKFile byte_order='LittleEndian' version='0.1' type = 'UnstructuredGrid'>
<UnstructuredGrid>
<FieldData>
<DataArray type='Float64' Name='Time' NumberOfComponents='1' NumberOfTuples='1' format='ascii'>
3.561
</DataArray>
</FieldData>
<Piece NumberOfCells='808' NumberOfPoints='808'>
<Points>
<DataArray NumberOfComponents='3' type='Float64' Name='position' format='ascii'>
0 0 0
0 0.025 0
-0.0016003 0.04926 0
-0.000544802 0.0748657 0
-3.41419e-05 0.0999976 0
-0.000447707 0.125096 0
0 0.15 0
0 0.175 0
0.0251734 -0.000146405 0
0.05 0 0
0.075 0 0
0.0999569 -0.000316513 0
0.124993 -0.000320121 0
0.153243 -0.00380156 0
0.176836 -0.00192282 0
0.200666 -0.00689273 0
0.223656 -0.000973278 0
0.248223 -0.00702435 0
0.265262 -0.00913584 0
0.293191 -0.0177381 0
0.315211 -0.0264613 0
0.332486 -0.011784 0
0.354063 -0.0933497 0
0.377942 -0.111399 0
0.410978 -0.119249 0
0.426325 -0.146447 0
0.465684 -0.159073 0
0.489918 -0.214003 0
0.526111 -0.241549 0
0.539176 -0.254142 0
0.569119 -0.273248 0
0.595857 -0.28484 0
0.597248 -0.325311 0
0.650887 -0.3327 0
0.673738 -0.346028 0
0.717211 -0.381817 0
0.711693 -0.391805 0
0.76925 -0.413067 0
0.790953 -0.422482 0
0.808939 -0.466312 0
0.817487 -0.451757 0
0.842412 -0.501924 0
0.868147 -0.500271 0
0.892451 -0.499302 0
0.913859 -0.524123 0
0.955582 -0.557041 0
0.971914 -0.574377 0
0.997321 -0.594297 0
1.03942 -0.602383 0
1.05179 -0.623968 0
1.06672 -0.627562 0
1.09106 -0.640671 0
1.13404 -0.673554 0
1.15093 -0.688664 0
1.17831 -0.698937 0
1.20387 -0.708234 0
1.22119 -0.72151 0
1.24272 -0.734895 0
1.27276 -0.74776 0
1.29878 -0.76301 0
1.31693 -0.776019 0
1.34319 -0.789444 0
1.37622 -0.806172 0
1.39701 -0.818673 0
1.41337 -0.826718 0
1.44333 -0.840352 0
1.47584 -0.857464 0
1.49699 -0.870395 0
1.51608 -0.879446 0
1.5424 -0.891206 0
1.57131 -0.906106 0
1.59712 -0.919451 0
1.62019 -0.930154 0
1.64315 -0.940592 0
1.66857 -0.951822 0
1.69634 -0.963522 0
1.72279 -0.975486 0
1.74591 -0.986917 0
1.76859 -0.996794 0
1.79446 -1.00595 0
1.82276 -1.01622 0
1.84965 -1.02742 0
1.8735 -1.03759 0
1.89653 -1.04595 0
1.92113 -1.0539 0
1.94727 -1.06315 0
1.97388 -1.07358 0
2.00007 -1.08348 0
2.02496 -1.09185 0
2.04855 -1.09935 0
2.07228 -1.10704 0
2.09722 -1.11499 0
2.12275 -1.12267 0
2.14778 -1.12965 0
2.17223 -1.13584 0
2.19674 -1.14126 0
2.22172 -1.14599 0
2.24704 -1.15027 0
2.27238 -1.1541 0
2.2976 -1.15759 0
2.32277 -1.16059 0
2.34799 -1.16287 0
2.37325 -1.16438 0
2.39852 -1.1652 0
2.42379 -1.16553 0
2.44905 -1.16557 0
2.47429 -1.16547 0
2.49948 -1.16536 0
0.0269511 0.039019 0
0.0529186 0.0133939 0
0.0671342 0.0099705 0
0.101116 0.0116531 0
0.121218 0.0346882 0
0.149068 0.0138712 0
0.166727 0.00509213 0
0.19864 0.0133163 0
0.208979 0.0157461 0
0.259284 -0.00105286 0
0.277333 0.00816927 0
0.28174 -0.0130751 0
0.316179 -0.00763469 0
0.341188 -0.0291083 0
0.370835 -0.0396341 0
0.37992 -0.0799809 0
0.396886 -0.102282 0
0.448577 -0.134009 0
0.44983 -0.154655 0
0.487299 -0.173978 0
0.501574 -0.195109 0
0.576505 -0.211745 0
0.568899 -0.252257 0
0.592274 -0.272438 0
0.645677 -0.284014 0
0.653859 -0.302215 0
0.6896 -0.328066 0
0.700014 -0.328519 0
0.715182 -0.363985 0
0.753893 -0.387176 0
0.783538 -0.409809 0
0.801707 -0.417248 0
0.826379 -0.42333 0
0.835757 -0.449437 0
0.876323 -0.458138 0
0.900178 -0.480706 0
0.923995 -0.523304 0
0.96497 -0.54622 0
0.97997 -0.554111 0
0.994678 -0.555681 0
1.0188 -0.57021 0
1.05378 -0.59983 0
1.07589 -0.615707 0
1.10421 -0.62678 0
1.12257 -0.636509 0
1.14877 -0.658268 0
1.17966 -0.674308 0
1.2015 -0.682549 0
1.22127 -0.694666 0
1.24432 -0.711236 0
1.2728 -0.726033 0
1.29863 -0.738602 0
1.31782 -0.750996 0
1.34239 -0.764483 0
1.37304 -0.779009 0
1.39718 -0.792462 0
1.41772 -0.804882 0
1.44392 -0.817266 0
1.47208 -0.831204 0
1.49566 -0.844461 0
1.518 -0.855778 0
1.54361 -0.867798 0
1.57065 -0.881399 0
1.59605 -0.894259 0
1.61986 -0.905314 0
1.64381 -0.916162 0
1.66925 -0.92788 0
1.69596 -0.939792 0
1.72188 -0.951011 0
1.74574 -0.9617 0
1.76939 -0.971973 0
1.79508 -0.981918 0
1.82225 -0.992228 0
1.84865 -1.0027 0
1.87328 -1.0124 0
1.89713 -1.02111 0
1.92166 -1.02978 0
1.94738 -1.03927 0
1.97371 -1.04931 0
1.9996 -1.05851 0
2.02443 -1.06657 0
2.04849 -1.07437 0
2.0727 -1.08246 0
2.09751 -1.09047 0
2.12261 -1.09785 0
2.14754 -1.10458 0
2.17221 -1.11077 0
2.19689 -1.11627 0
2.22183 -1.12111 0
2.24701 -1.12537 0
2.27229 -1.12922 0
2.29756 -1.1327 0
2.32279 -1.13568 0
2.34803 -1.13794 0
2.37328 -1.13944 0
2.39854 -1.14028 0
2.4238 -1.14064 0
2.44905 -1.1407 0
2.47427 -1.14064 0
2.49945 -1.14055 0
0.0372896 0.0299713 0
0.0192879 0.0515556 0
0.0590536 0.0487768 0
0.102406 0.0373488 0
0.117711 0.0473566 0
0.139287 0.0531256 0
0.174258 0.0383997 0
0.205015 0.0296821 0
0.229764 0.027922 0
0.256165 0.0267887 0
0.272624 -0.000685804 0
0.290688 0.00458073 0
0.303337 -0.0136821 0
0.341279 -0.0166696 0
0.376531 -0.0484374 0
0.397348 -0.0573773 0
0.407721 -0.0996498 0
0.436746 -0.122424 0
0.467116 -0.123813 0
0.499294 -0.152861 0
0.518995 -0.17737 0
0.549717 -0.19294 0
0.569733 -0.194271 0
0.599209 -0.233372 0
0.620613 -0.260237 0
0.659244 -0.272336 0
0.683666 -0.292731 0
0.715743 -0.316784 0
0.720651 -0.330141 0
0.75616 -0.358058 0
0.771952 -0.381206 0
0.802985 -0.386747 0
0.840996 -0.418086 0
0.854278 -0.436708 0
0.876032 -0.445924 0
0.909141 -0.468408 0
0.912841 -0.500714 0
0.962036 -0.506893 0
0.983431 -0.519847 0
0.985199 -0.531986 0
1.01882 -0.547916 0
1.0489 -0.563448 0
1.0783 -0.597981 0
1.10864 -0.606076 0
1.12512 -0.608213 0
1.14804 -0.631922 0
1.17803 -0.648775 0
1.19974 -0.655122 0
1.21993 -0.668167 0
1.24559 -0.687937 0
1.27415 -0.703197 0
1.29758 -0.713178 0
1.31711 -0.725646 0
1.34309 -0.739633 0
1.37222 -0.75257 0
1.39606 -0.767106 0
1.41894 -0.781454 0
1.44531 -0.793517 0
1.47081 -0.806152 0
1.49409 -0.819572 0
1.51862 -0.831436 0
1.5448 -0.843205 0
1.57048 -0.856758 0
1.59519 -0.869344 0
1.61953 -0.879992 0
1.64421 -0.891386 0
1.6698 -0.903879 0
1.69581 -0.915662 0
1.7212 -0.926404 0
1.74559 -0.936584 0
1.76996 -0.94678 0
1.79549 -0.957378 0
1.82186 -0.967881 0
1.84794 -0.97791 0
1.87314 -0.987356 0
1.8976 -0.996295 0
1.92212 -1.0054 0
1.94752 -1.01514 0
1.97356 -1.02468 0
1.9992 -1.03326 0
2.02401 -1.04131 0
2.04844 -1.04948 0
2.07298 -1.05778 0
2.09772 -1.06567 0
2.12257 -1.07286 0
2.14741 -1.07945 0
2.17219 -1.08561 0
2.19697 -1.09118 0
2.22188 -1.09612 0
2.24699 -1.10044 0
2.27224 -1.10434 0
2.29752 -1.10784 0
2.3228 -1.1108 0
2.34806 -1.11305 0
2.37333 -1.11454 0
2.39859 -1.11538 0
2.42383 -1.11577 0
2.44905 -1.11588 0
2.47426 -1.11587 0
2.49944 -1.11582 0
0.0117941 0.0647906 0
0.0618947 0.0807811 0
0.0682283 0.0675976 0
0.0928663 0.0812337 0
0.11603 0.071024 0
0.140045 0.0691193 0
0.174174 0.064012 0
0.19278 0.0626875 0
0.220627 0.0575652 0
0.258405 0.061736 0
0.272308 0.0309053 0
0.302545 0.0214312 0
0.303693 0.00985604 0
0.349889 0.00431476 0
0.370892 -0.00562636 0
0.399403 -0.0308493 0
0.414733 -0.0595538 0
0.437245 -0.0692736 0
0.479544 -0.11251 0
0.514328 -0.15021 0
0.527869 -0.163107 0
0.534118 -0.17613 0
0.56874 -0.180635 0
0.585283 -0.198662 0
0.609462 -0.218232 0
0.665683 -0.252581 0
0.683169 -0.269751 0
0.702086 -0.281828 0
0.737457 -0.297511 0
0.742573 -0.319571 0
0.777606 -0.362168 0
0.79277 -0.38108 0
0.827181 -0.385494 0
0.851518 -0.41998 0
0.890835 -0.431009 0
0.897079 -0.442818 0
0.914955 -0.455795 0
0.953541 -0.461672 0
0.981332 -0.494357 0
0.998955 -0.51395 0
1.02098 -0.521807 0
1.05116 -0.542252 0
1.07711 -0.564513 0
1.10085 -0.576578 0
1.13032 -0.589682 0
1.15374 -0.606754 0
1.17305 -0.622299 0
1.19757 -0.632491 0
1.22187 -0.643043 0
1.24541 -0.660834 0
1.27258 -0.678288 0
1.29709 -0.688581 0
1.31797 -0.700249 0
1.34401 -0.714838 0
1.37211 -0.728224 0
1.39498 -0.741853 0
1.41818 -0.756027 0
1.44563 -0.769238 0
1.47131 -0.782036 0
1.49379 -0.794477 0
1.5183 -0.806637 0
1.54528 -0.819422 0
1.57077 -0.831902 0
1.59449 -0.843506 0
1.61901 -0.855056 0
1.64466 -0.867039 0
1.67033 -0.879494 0
1.69565 -0.891365 0
1.72065 -0.901595 0
1.74541 -0.911373 0
1.7704 -0.921973 0
1.79583 -0.932751 0
1.82155 -0.943085 0
1.84743 -0.953076 0
1.87304 -0.962511 0
1.8979 -0.971612 0
1.9225 -0.981119 0
1.94773 -0.99078 0
1.97343 -0.999719 0
1.99883 -1.00799 0
2.02372 -1.01621 0
2.04841 -1.02469 0
2.07312 -1.03307 0
2.09784 -1.0408 0
2.12258 -1.0478 0
2.14736 -1.05429 0
2.17216 -1.06046 0
2.19699 -1.06609 0
2.22191 -1.0711 0
2.24699 -1.07555 0
2.2722 -1.0795 0
2.29749 -1.08303 0
2.3228 -1.08598 0
2.3481 -1.08821 0
2.37339 -1.08969 0
2.39864 -1.09052 0
2.42386 -1.09092 0
2.44905 -1.09108 0
2.47424 -1.09114 0
2.49942 -1.09115 0
0.0323749 0.107041 0
0.0575395 0.0981483 0
0.0828225 0.0867541 0
0.0931698 0.0912291 0
0.120887 0.0892645 0
0.164229 0.101668 0
0.183715 0.0698881 0
0.208158 0.0833924 0
0.223798 0.083965 0
0.240888 0.0767776 0
0.262394 0.0525052 0
0.300849 0.0524232 0
0.322653 0.0455909 0
0.350292 0.0276184 0
0.368109 0.0113861 0
0.410525 -0.0135713 0
0.42314 -0.0431779 0
0.462687 -0.0476419 0
0.466591 -0.0942303 0
0.4886 -0.0861952 0
0.529206 -0.111173 0
0.544099 -0.147756 0
0.572893 -0.165141 0
0.598377 -0.161795 0
0.616683 -0.205323 0
0.65572 -0.214545 0
0.687034 -0.246706 0
0.694335 -0.273969 0
0.727553 -0.27627 0
0.751807 -0.31313 0
0.761649 -0.322412 0
0.817356 -0.328063 0
0.824534 -0.359078 0
0.848578 -0.380313 0
0.872156 -0.386022 0
0.896518 -0.415452 0
0.928374 -0.43335 0
0.95521 -0.445189 0
0.977903 -0.4695 0
1.00031 -0.497955 0
1.02723 -0.502993 0
1.05526 -0.51361 0
1.07542 -0.53664 0
1.0975 -0.549549 0
1.12895 -0.562642 0
1.15418 -0.58423 0
1.17288 -0.598518 0
1.19657 -0.606153 0
1.22245 -0.620972 0
1.24657 -0.637305 0
1.27095 -0.649775 0
1.29485 -0.661993 0
1.31934 -0.676816 0
1.34632 -0.691089 0
1.37156 -0.703638 0
1.39334 -0.717129 0
1.41773 -0.730859 0
1.44568 -0.743631 0
1.47131 -0.757132 0
1.49416 -0.77053 0
1.51868 -0.782445 0
1.54517 -0.794506 0
1.5705 -0.806946 0
1.5942 -0.818407 0
1.61873 -0.829916 0
1.64492 -0.842782 0
1.67081 -0.855423 0
1.69542 -0.86633 0
1.72007 -0.876434 0
1.74542 -0.886755 0
1.77078 -0.897408 0
1.79595 -0.908042 0
1.82138 -0.918183 0
1.84718 -0.928028 0
1.87289 -0.937756 0
1.89801 -0.947276 0
1.92281 -0.956847 0
1.94792 -0.966165 0
1.97333 -0.974664 0
1.99858 -0.982771 0
2.02352 -0.99124 0
2.04835 -0.999984 0
2.07315 -1.00835 0
2.09789 -1.01589 0
2.12261 -1.02274 0
2.14736 -1.02917 0
2.17214 -1.03532 0
2.19698 -1.04104 0
2.22192 -1.04617 0
2.24698 -1.05068 0
2.27217 -1.05469 0
2.29746 -1.05824 0
2.32279 -1.06121 0
2.34813 -1.06343 0
2.37344 -1.06487 0
2.3987 -1.06568 0
2.42389 -1.06607 0
2.44906 -1.06628 0
2.47422 -1.06642 0
2.49939 -1.06651 0
0.0084745 0.118625 0
0.0502939 0.125711 0
0.0611683 0.131251 0
0.0863861 0.107579 0
0.120212 0.108695 0
0.147922 0.131657 0
0.170888 0.111226 0
0.207146 0.112708 0
0.233719 0.112217 0
0.240828 0.0980914 0
0.277924 0.070413 0
0.285529 0.0776653 0
0.313549 0.0657463 0
0.343556 0.0442407 0
0.395638 0.0183752 0
0.389632 0.00341352 0
0.431209 -0.0245769 0
0.442984 -0.0292852 0
0.479282 -0.0784026 0
0.529042 -0.0872584 0
0.518969 -0.0870765 0
0.542543 -0.102082 0
0.58004 -0.126673 0
0.603557 -0.146893 0
0.620472 -0.168364 0
0.645571 -0.189517 0
0.665557 -0.198893 0
0.694044 -0.231922 0
0.730358 -0.260687 0
0.754341 -0.28561 0
0.778275 -0.293631 0
0.811189 -0.313262 0
0.833695 -0.324871 0
0.833672 -0.340701 0
0.878172 -0.360987 0
0.906666 -0.393878 0
0.924427 -0.410432 0
0.954391 -0.429095 0
0.97961 -0.448419 0
0.997746 -0.462094 0
1.0283 -0.481166 0
1.05885 -0.495911 0
1.07723 -0.508838 0
1.0986 -0.52288 0
1.1254 -0.536936 0
1.14892 -0.556785 0
1.17328 -0.572257 0
1.19886 -0.581996 0
1.22235 -0.596741 0
1.24651 -0.612194 0
1.27042 -0.62442 0
1.29347 -0.636416 0
1.31988 -0.65218 0
1.34789 -0.668062 0
1.37121 -0.679516 0
1.39207 -0.6909 0
1.41754 -0.705567 0
1.44605 -0.719871 0
1.47118 -0.732379 0
1.49392 -0.744945 0
1.51893 -0.757932 0
1.54541 -0.770409 0
1.57018 -0.782021 0
1.59385 -0.793267 0
1.61885 -0.805382 0
1.64511 -0.818549 0
1.67071 -0.830806 0
1.69519 -0.841086 0
1.71989 -0.851262 0
1.74546 -0.86236 0
1.77099 -0.873251 0
1.79602 -0.883317 0
1.82129 -0.892993 0
1.84707 -0.902942 0
1.87276 -0.913125 0
1.898 -0.923088 0
1.92299 -0.93258 0
1.94806 -0.941359 0
1.97331 -0.949503 0
1.99849 -0.957682 0
2.02341 -0.966371 0
2.04823 -0.97525 0
2.07309 -0.983611 0
2.09791 -0.991021 0
2.12265 -0.997686 0
2.14736 -1.00402 0
2.17213 -1.01022 0
2.19698 -1.01605 0
2.22193 -1.02126 0
2.24697 -1.02584 0
2.27213 -1.02989 0
2.29742 -1.03348 0
2.32278 -1.03647 0
2.34816 -1.03868 0
2.3735 -1.04009 0
2.39875 -1.04084 0
2.42393 -1.04121 0
2.44906 -1.04147 0
2.4742 -1.04169 0
2.49935 -1.04186 0
0.039761 0.142064 0
0.0189735 0.157715 0
0.0752786 0.165258 0
0.0892895 0.147995 0
0.133141 0.146392 0
0.149835 0.162146 0
0.172927 0.130767 0
0.209116 0.135078 0
0.244769 0.1176 0
0.254281 0.123349 0
0.268447 0.112375 0
0.293985 0.108425 0
0.324664 0.071142 0
0.356945 0.0568401 0
0.376066 0.054074 0
0.399013 0.0506376 0
0.424759 0.0277941 0
0.441313 -0.00496776 0
0.472516 -0.0247953 0
0.498362 -0.0477256 0
0.532124 -0.0539788 0
0.551718 -0.0737697 0
0.566713 -0.112019 0
0.612282 -0.135943 0
0.625405 -0.152553 0
0.649324 -0.16668 0
0.68648 -0.191283 0
0.705314 -0.198194 0
0.720287 -0.226018 0
0.746587 -0.267821 0
0.76979 -0.271838 0
0.807576 -0.292145 0
0.82143 -0.299617 0
0.846067 -0.325335 0
0.885018 -0.344859 0
0.901072 -0.364079 0
0.916641 -0.375924 0
0.95374 -0.409949 0
0.982624 -0.424064 0
1.00087 -0.434578 0
1.02664 -0.45148 0
1.05641 -0.474046 0
1.07928 -0.486753 0
1.10067 -0.498721 0
1.12297 -0.514961 0
1.14781 -0.530299 0
1.17328 -0.542966 0
1.19755 -0.556526 0
1.2226 -0.572434 0
1.2476 -0.589044 0
1.26995 -0.599286 0
1.29323 -0.611019 0
1.32043 -0.628642 0
1.34725 -0.643736 0
1.37003 -0.654193 0
1.39251 -0.665977 0
1.41873 -0.681353 0
1.44593 -0.695865 0
1.47032 -0.707484 0
1.49354 -0.719147 0
1.51894 -0.73314 0
1.54551 -0.746713 0
1.57034 -0.75748 0
1.59397 -0.768159 0
1.61882 -0.781178 0
1.64488 -0.794487 0
1.67042 -0.805707 0
1.69508 -0.815781 0
1.71997 -0.826508 0
1.74553 -0.838149 0
1.77101 -0.849209 0
1.79605 -0.858617 0
1.82126 -0.867715 0
1.84696 -0.877955 0
1.87271 -0.888725 0
1.89802 -0.898954 0
1.92298 -0.908219 0
1.94808 -0.916506 0
1.9734 -0.924403 0
1.99853 -0.932716 0
2.02333 -0.941588 0
2.04811 -0.950538 0
2.07302 -0.958898 0
2.09791 -0.966225 0
2.12267 -0.972691 0
2.14736 -0.978912 0
2.17212 -0.98515 0
2.19699 -0.991125 0
2.22193 -0.996418 0
2.24694 -1.001 0
2.27208 -1.00509 0
2.29737 -1.00873 0
2.32277 -1.01176 0
2.34819 -1.01397 0
2.37355 -1.01531 0
2.3988 -1.01598 0
2.42395 -1.01632 0
2.44906 -1.01661 0
2.47418 -1.01691 0
2.49931 -1.01716 0
0.0383579 0.172871 0
0.0535914 0.175493 0
0.0894846 0.161279 0
0.103446 0.177462 0
0.118941 0.167114 0
0.142983 0.179345 0
0.169071 0.143662 0
0.206891 0.155207 0
0.232574 0.13607 0
0.263162 0.128944 0
0.280364 0.120806 0
0.300048 0.117894 0
0.332428 0.106076 0
0.33537 0.0955976 0
0.387604 0.0554401 0
0.410643 0.0767099 0
0.440006 0.0567091 0
0.449518 0.0129583 0
0.48928 0.0231593 0
0.486692 -0.0278525 0
0.518224 -0.0373232 0
0.53983 -0.0303757 0
0.593095 -0.106677 0
0.61026 -0.0909498 0
0.637704 -0.124473 0
0.652603 -0.137875 0
0.674673 -0.178683 0
0.696872 -0.171708 0
0.720192 -0.215549 0
0.757903 -0.228273 0
0.783326 -0.227273 0
0.805947 -0.262604 0
0.825295 -0.283663 0
0.868709 -0.280145 0
0.880847 -0.322433 0
0.899427 -0.338299 0
0.929118 -0.345517 0
0.956473 -0.377174 0
0.982508 -0.409653 0
1.00265 -0.407156 0
1.02648 -0.420185 0
1.05398 -0.45372 0
1.07595 -0.463517 0
1.09804 -0.467796 0
1.12613 -0.49371 0
1.15171 -0.511453 0
1.17144 -0.511661 0
1.19388 -0.524673 0
1.22248 -0.551679 0
1.2491 -0.567034 0
1.27059 -0.573237 0
1.29372 -0.586892 0
1.32007 -0.6051 0
1.34545 -0.618742 0
1.36911 -0.628961 0
1.39376 -0.641917 0
1.42013 -0.658173 0
1.44576 -0.672297 0
1.46928 -0.682197 0
1.49283 -0.693505 0
1.51873 -0.708939 0
1.54573 -0.723286 0
1.57092 -0.733381 0
1.5943 -0.743453 0
1.61842 -0.756859 0
1.64431 -0.770585 0
1.67026 -0.781204 0
1.69518 -0.790596 0
1.72003 -0.802034 0
1.7455 -0.814562 0
1.77104 -0.825209 0
1.79607 -0.833875 0
1.82107 -0.842794 0
1.84681 -0.853272 0
1.87284 -0.864634 0
1.89812 -0.875104 0
1.92283 -0.88382 0
1.94799 -0.891673 0
1.97355 -0.89967 0
1.99864 -0.908038 0
2.02324 -0.916883 0
2.04798 -0.925997 0
2.07298 -0.934433 0
2.09793 -0.941547 0
2.12266 -0.947736 0
2.14733 -0.953925 0
2.1721 -0.960289 0
2.19699 -0.966348 0
2.22192 -0.97163 0
2.2469 -0.976173 0
2.27203 -0.980311 0
2.29733 -0.984027 0
2.32276 -0.987097 0
2.34822 -0.989288 0
2.37361 -0.990546 0
2.39885 -0.991114 0
2.42398 -0.991394 0
2.44907 -0.991693 0
2.47417 -0.992061 0
2.49929 -0.992388 0
</DataArray>
</Points>
<PointData>
<DataArray NumberOfComponents='1' type='Int32' Name='Particle Type' format='ascii'>
0
0
0
0
0
0
0
0
0
0
0
0
0
0
0
0
0
0
0
0
0
0
1
1
1
1
1
1
1
1
1
1
1
1
1
1
1
1
1
1
1
1
1
1
1
1
1
1
1
1
1
1
1
1
1
1
1
1
1
1
1
1
1
1
1
1
1
1
1
1
1
1
1
1
1
1
1
1
1
1
1
1
1
1
1
1
1
1
1
1
1
1
1
1
1
1
1
1
1
1
1
1
1
1
1
1
1
1
1
1
1
1
1
1
1
1
1
1
1
1
1
1
1
1
1
1
1
1
1
1
1
1
1
1
1
1
1
1
1
1
1
1
1
1
1
1
1
1
1
1
1
1
1
1
1
1
1
1
1
1
1
1
1
1
1
1
1
1
1
1
1
1
1
1
1
1
1
1
1
1
1
1
1
1
1
1
1
1
1
1
1
1
1
1
1
1
1
1
1
1
1
1
1
1
1
1
1
1
1
1
1
1
1
1
1
1
1
1
1
1
1
1
1
1
1
1
1
1
1
1
1
1
1
1
1
1
1
1
1
1
1
1
1
1
1
1
1
1
1
1
1
1
1
1
1
1
1
1
1
1
1
1
1
1
1
1
1
1
1
1
1
1
1
1
1
1
1
1
1
1
1
1
1
1
1
1
1
1
1
1
1
1
1
1
1
1
1
1
1
1
1
1
1
1
1
1
1
1
1
1
1
1
1
1
1
1
1
1
1
1
1
1
1
1
1
1
1
1
1
1
1
1
1
1
1
1
1
1
1
1
1
1
1
1
1
1
1
1
1
1
1
1
1
1
1
1
1
1
1
1
1
1
1
1
1
1
1
1
1
1
1
1
1
1
1
1
1
1
1
1
1
1
1
1
1
1
1
1
1
1
1
1
1
1
1
1
1
1
1
1
1
1
1
1
1
1
1
1
1
1
1
1
1
1
1
1
1
1
1
1
1
1
1
1
1
1
1
1
1
1
1
1
1
1
1
1
1
1
1
1
1
1
1
1
1
1
1
1
1
1
1
1
1
1
1
1
1
1
1
1
1
1
1
1
1
1
1
1
1
1
1
1
1
1
1
1
1
1
1
1
1
1
1
1
1
1
1
1
1
1
1
1
1
1
1
1
1
1
1
1
1
1
1
1
1
1
1
1
1
1
1
1
1
1
1
1
1
1
1
1
1
1
1
1
1
1
1
1
1
1
1
1
1
1
1
1
1
1
1
1
1
1
1
1
1
1
1
1
1
1
1
1
1
1
1
1
1
1
1
1
1
1
1
1
1
1
1
1
1
1
1
1
1
1
1
1
1
1
1
1
1
1
1
1
1
1
1
1
1
1
1
1
1
1
1
1
1
1
1
1
1
1
1
1
1
1
1
1
1
1
1
1
1
1
1
1
1
1
1
1
1
1
1
1
1
1
1
1
1
1
1
1
1
1
1
1
1
1
1
1
1
1
1
1
1
1
1
1
1
1
1
1
1
1
1
1
1
1
1
1
1
1
1
1
1
1
1
1
1
1
1
1
1
1
1
1
1
1
1
1
1
1
1
1
1
1
1
1
1
1
1
1
1
1
1
1
1
1
1
1
1
1
1
1
1
1
1
1
1
1
1
1
1
1
1
1
1
1
1
1
1
1
1
1
1
1
1
1
1
1
1
1
1
1
1
1
1
1
1
1
1
1
1
1
1
1
1
1
1
1
1
1
1
1
1
1
1
1
1
1
1
1
1
1
1
1
1
1
1
1
1
1
1
1
1
1
1
1
1
1
1
1
1
1
1
1
1
1
1
1
1
1
1
1
1
1
1
1
1
1
1
1
1
1
1
1
1
1
</DataArray>
<DataArray NumberOfComponents='3' type='Float64' Name='Velocity' format='ascii'>
0 0 0
0 0 0
-0.759375 -0.0896113 0
-0.375428 -0.0975743 0
-0.040161 -0.00260138 0
-0.317554 0.0573296 0
0 0 0
0 0 0
0.180692 -0.171073 0
0 0 0
0 0 0
-0.0252142 -0.207763 0
-0.0037498 -0.191854 0
0.376891 -0.837306 0
0.329871 -0.31467 0
0.0517448 -0.763436 0
-0.26285 -0.167797 0
-0.125847 -0.580021 0
-0.397762 -0.43203 0
0.0637138 -0.946087 0
-0.0647712 -0.324376 0
-0.0143853 0.623935 0
-0.00803014 0.00326391 0
-0.142838 -0.273039 0
-0.534193 -0.509194 0
0.130361 -0.337312 0
0.0805132 0.966221 0
0.102126 -0.491934 0
-0.146471 -0.634453 0
-0.353856 0.363569 0
-0.368485 0.284304 0
0.588773 -0.088846 0
-0.523499 0.256931 0
-0.0862554 0.32869 0
-0.125741 -0.106326 0
0.0764471 0.298258 0
0.0227453 0.177323 0
-0.463877 -1.12194 0
0.272817 -0.392862 0
0.329053 -0.0615663 0
0.0674875 -0.553013 0
0.18655 0.0430605 0
-0.649112 -1.01209 0
0.378429 -1.03191 0
-0.190075 -0.0772291 0
-0.409756 0.105957 0
0.263 -0.129248 0
-0.686401 -0.167606 0
0.0487901 -0.368848 0
0.426424 -0.389882 0
0.387771 -0.621401 0
-0.615712 0.273069 0
-0.0685529 0.0614324 0
0.0677332 -0.299349 0
-0.109191 -0.418664 0
0.13096 -0.356465 0
0.203782 -0.281816 0
-0.0534694 -0.330757 0
-0.138975 -0.27474 0
0.106692 -0.248561 0
0.105502 -0.305412 0
-0.215822 -0.220378 0
-0.0769198 -0.262235 0
0.280255 -0.440753 0
0.06038 -0.394851 0
-0.279902 -0.199288 0
-0.0647541 -0.238318 0
0.201609 -0.38776 0
0.076033 -0.395099 0
-0.114131 -0.273831 0
-0.0917435 -0.256743 0
0.0193317 -0.343647 0
0.0713193 -0.390396 0
0.029993 -0.374453 0
-0.0616981 -0.353792 0
-0.0796925 -0.340904 0
0.0130184 -0.340201 0
0.0841257 -0.374906 0
0.0296396 -0.417555 0
-0.0760412 -0.411024 0
-0.0911332 -0.37387 0
-0.0032355 -0.377633 0
0.0666575 -0.42964 0
0.0455371 -0.466586 0
-0.0162707 -0.446284 0
-0.0544173 -0.396476 0
-0.05929 -0.382552 0
-0.0316212 -0.4194 0
0.0162579 -0.458641 0
0.0365456 -0.46104 0
0.00611954 -0.438322 0
-0.0313971 -0.42265 0
-0.0327799 -0.42277 0
-0.0109614 -0.431006 0
0.000649664 -0.439258 0
-0.00705233 -0.441918 0
-0.017262 -0.441154 0
-0.0174743 -0.435509 0
-0.00938512 -0.429611 0
-0.00136551 -0.422683 0
0.000839806 -0.421746 0
-0.00140791 -0.424873 0
-0.00554794 -0.428095 0
-0.0103935 -0.430267 0
-0.0149768 -0.432519 0
-0.0183758 -0.436206 0
-0.0204229 -0.441062 0
-0.0216978 -0.445373 0
0.546297 0.635953 0
0.357567 -0.696031 0
0.361091 -0.353555 0
-0.105069 0.354334 0
-0.111464 0.0613823 0
0.497427 -0.174185 0
-0.0176189 0.375313 0
0.563848 -1.01152 0
-0.640426 0.0505043 0
-0.178544 -0.0370954 0
-0.181721 -0.146561 0
-0.523668 -0.304461 0
-0.296148 -0.235991 0
-0.0863629 -0.257048 0
0.903837 0.171651 0
-0.198883 -0.83169 0
0.40748 0.288712 0
-0.526596 -0.794431 0
-0.517949 0.0149112 0
0.0200586 -0.611384 0
-0.0687804 0.529669 0
-0.0317789 0.0657772 0
0.368221 -1.03863 0
-0.800955 0.542448 0
-0.00693273 -0.546578 0
0.0914034 -0.0549733 0
0.102931 -0.64858 0
0.396655 -0.550344 0
0.498147 0.108914 0
-0.0244406 0.00218146 0
-0.531516 0.210902 0
0.74702 -0.413797 0
-0.42264 0.182665 0
0.0770302 -0.118477 0
0.164096 -0.0248509 0
0.0986248 0.338201 0
-0.0811519 0.961117 0
-0.368689 -0.711525 0
0.669463 0.104558 0
0.591178 -0.833347 0
-0.307618 0.303857 0
-0.0821567 -0.0793487 0
-0.00764047 -0.283172 0
0.0798793 -0.53122 0
0.164075 -0.258749 0
-0.250203 -0.0585958 0
-0.0682986 -0.365962 0
0.147044 -0.407681 0
0.112814 -0.245489 0
-0.044003 -0.191664 0
-0.117372 -0.283 0
0.0980013 -0.332565 0
0.137221 -0.31196 0
-0.129092 -0.270243 0
-0.120014 -0.269304 0
0.107875 -0.308518 0
0.0633154 -0.328589 0
-0.0912778 -0.311825 0
-0.0393983 -0.279552 0
0.0769288 -0.332672 0
0.0315406 -0.351799 0
-0.0592834 -0.305001 0
-0.0509123 -0.289174 0
0.012299 -0.34027 0
0.0391689 -0.376745 0
0.0100748 -0.361829 0
-0.0404324 -0.337883 0
-0.0496724 -0.348092 0
0.00722757 -0.370758 0
0.0527724 -0.38318 0
0.0159148 -0.395934 0
-0.0506345 -0.396127 0
-0.0605999 -0.385048 0
-0.011731 -0.398172 0
0.0341338 -0.429984 0
0.0332296 -0.44624 0
-0.00473518 -0.427819 0
-0.0421508 -0.398906 0
-0.0488338 -0.401474 0
-0.0234853 -0.437769 0
0.00843354 -0.456876 0
0.0172448 -0.444859 0
-0.000219685 -0.427291 0
-0.0192566 -0.426285 0
-0.0218349 -0.432304 0
-0.0133819 -0.434639 0
-0.0069585 -0.435888 0
-0.00859756 -0.438864 0
-0.0129665 -0.441239 0
-0.0136718 -0.437196 0
-0.00975724 -0.429774 0
-0.00434205 -0.423366 0
-0.00155705 -0.422239 0
-0.00247981 -0.42494 0
-0.00574135 -0.428033 0
-0.00991957 -0.43023 0
-0.0140138 -0.432408 0
-0.0173741 -0.435713 0
-0.0198238 -0.439904 0
-0.02163 -0.443553 0
-0.314591 0.59912 0
-0.0668801 -1.67138e-05 0
-0.583185 0.487297 0
0.0398689 0.56806 0
-0.346018 -0.507864 0
0.0877027 -0.409962 0
-0.119417 0.373707 0
0.166128 0.00610641 0
0.155011 -0.576364 0
0.476637 0.163787 0
-0.422936 0.0373097 0
0.292743 0.0386136 0
0.290755 0.112392 0
-0.226834 -0.575746 0
0.402374 -0.0812698 0
-0.55656 -0.23137 0
0.281796 0.910705 0
-0.644755 -0.322671 0
0.218031 -0.351302 0
-0.540654 -0.00262379 0
-0.871147 0.935954 0
0.547293 -0.557938 0
0.26074 -0.0914609 0
-0.561494 -0.174902 0
-0.211867 -0.0160094 0
-0.148252 -0.597458 0
0.322905 -0.371643 0
-0.0294169 -0.0429752 0
0.781218 -0.580247 0
-0.447039 0.27756 0
0.452394 0.0310491 0
-0.375192 -0.518201 0
-0.338576 0.332893 0
0.556027 -0.514578 0
-0.104343 0.259752 0
0.472276 0.489747 0
-0.0409911 -0.260376 0
-0.41901 -0.7755 0
0.631054 -0.831176 0
0.231893 -0.0933542 0
-0.344077 -0.325826 0
-0.151255 0.252589 0
-0.305844 0.0276983 0
0.0767731 -0.796169 0
0.27764 -0.33359 0
-0.124065 -0.0119741 0
-0.0587251 -0.419183 0
0.173041 -0.447376 0
0.0541875 -0.125622 0
-0.120264 -0.121989 0
-0.0566594 -0.345507 0
0.160592 -0.397126 0
0.0917459 -0.289319 0
-0.132385 -0.312217 0
-0.0738965 -0.279786 0
0.0630284 -0.230334 0
0.00178738 -0.300904 0
-0.0393791 -0.34592 0
0.0321342 -0.301839 0
0.0345082 -0.313906 0
-0.0297663 -0.357102 0
-0.0406289 -0.313294 0
-0.00867278 -0.287796 0
0.01272 -0.355145 0
0.0155834 -0.378128 0
-0.00624655 -0.33157 0
-0.031163 -0.325673 0
-0.0251775 -0.360817 0
0.00771144 -0.388429 0
0.0283599 -0.39906 0
0.00629184 -0.386501 0
-0.031671 -0.376573 0
-0.0404204 -0.390227 0
-0.0186427 -0.409775 0
0.0101744 -0.429204 0
0.0229668 -0.433302 0
0.00343466 -0.414185 0
-0.0303681 -0.401613 0
-0.0387617 -0.423644 0
-0.0177831 -0.447848 0
0.00146037 -0.447346 0
0.00285647 -0.432083 0
-0.00492675 -0.425553 0
-0.0117402 -0.431759 0
-0.0147134 -0.437236 0
-0.0135288 -0.437658 0
-0.0107461 -0.434569 0
-0.00963754 -0.437266 0
-0.0110064 -0.439143 0
-0.0118242 -0.436073 0
-0.00989971 -0.429051 0
-0.0063126 -0.423761 0
-0.00369181 -0.423322 0
-0.00371009 -0.426138 0
-0.00596761 -0.429325 0
-0.00930652 -0.431474 0
-0.0128764 -0.43313 0
-0.016253 -0.43534 0
-0.0192236 -0.438174 0
-0.0217636 -0.440736 0
-0.401867 -0.495687 0
-1.20226 -0.338798 0
-0.473161 0.297089 0
-0.0646496 -0.237949 0
-0.384099 0.076913 0
0.484645 0.410716 0
-0.043451 -0.0743211 0
-0.0756357 -0.201354 0
0.281067 -0.47052 0
0.413166 0.202706 0
-0.239918 -0.186916 0
-0.264345 0.158058 0
0.622024 -0.157546 0
-0.111362 -0.294604 0
0.322177 -0.149347 0
-0.242909 0.220593 0
-0.216297 -0.883805 0
0.542487 0.986312 0
-0.0626462 0.608234 0
0.278529 -0.253646 0
-0.309644 -0.936984 0
-0.00312968 -0.496384 0
0.628617 0.181835 0
0.476596 0.177976 0
0.313649 0.0209019 0
0.149 -0.150402 0
1.0669 0.113907 0
-0.607787 -0.561061 0
0.221248 -0.177382 0
0.182343 0.697486 0
-0.419282 -0.556492 0
-0.282403 0.037736 0
0.319637 0.217223 0
-0.370785 0.619531 0
-0.0884157 -0.837095 0
0.671764 -0.382581 0
-0.101068 -0.680211 0
-0.315263 -0.0477464 0
0.089838 0.210873 0
0.161554 -0.423064 0
-0.0491714 -0.2533 0
-0.182269 0.0560972 0
0.0256836 -0.18412 0
-0.120948 -0.322459 0
-0.110859 -0.240167 0
0.189841 -0.221463 0
0.122776 -0.312484 0
-0.00635152 -0.429684 0
0.0494623 -0.281056 0
-0.0278536 -0.0896975 0
-0.0706695 -0.28095 0
0.0996674 -0.411671 0
0.069712 -0.308294 0
-0.111495 -0.274047 0
-0.0306499 -0.293245 0
0.0855486 -0.262114 0
-0.0281973 -0.273546 0
-0.078307 -0.305722 0
0.0427849 -0.324383 0
0.0612 -0.336709 0
-0.045723 -0.320778 0
-0.0596347 -0.312332 0
0.018132 -0.342661 0
0.0332147 -0.353294 0
-0.0112013 -0.341909 0
-0.0284238 -0.32656 0
-0.0175139 -0.322497 0
-0.00413874 -0.366494 0
0.00862305 -0.411943 0
0.00915439 -0.398849 0
-0.00427474 -0.373778 0
-0.0162887 -0.379003 0
-0.0243018 -0.391473 0
-0.0252307 -0.407936 0
-0.00590181 -0.426866 0
0.0151195 -0.422746 0
0.00580674 -0.405694 0
-0.0201358 -0.415354 0
-0.026974 -0.440225 0
-0.0147594 -0.448134 0
-0.00556208 -0.436815 0
-0.00554394 -0.424704 0
-0.00745859 -0.426683 0
-0.00880344 -0.437068 0
-0.0111259 -0.441442 0
-0.0123964 -0.439604 0
-0.0118836 -0.432925 0
-0.0104395 -0.435988 0
-0.0105185 -0.435666 0
-0.0110518 -0.433624 0
-0.00984899 -0.42829 0
-0.00736566 -0.424344 0
-0.00527444 -0.424771 0
-0.00485366 -0.42811 0
-0.00620776 -0.431707 0
-0.0086664 -0.433796 0
-0.0117412 -0.434473 0
-0.0152282 -0.434868 0
-0.0187893 -0.435678 0
-0.0220732 -0.436691 0
0.0309694 0.300483 0
-0.535018 0.198122 0
0.331592 -0.547169 0
-0.198271 -0.0553424 0
-0.60452 -0.128556 0
0.18344 -0.321374 0
-0.133982 0.707131 0
-0.442208 -0.585002 0
0.42739 0.206522 0
-0.132652 -0.291102 0
0.89544 0.766309 0
-0.33604 -0.252033 0
-0.842371 0.0400069 0
0.191687 0.383855 0
-0.0837416 0.175342 0
0.491905 0.187506 0
-0.157594 0.115028 0
-0.178551 -0.203308 0
0.428483 -1.27188 0
0.384234 0.539524 0
0.940666 -0.0147097 0
0.400827 0.582324 0
-0.787722 -0.151786 0
-0.313963 -0.296736 0
-0.1769 -0.267713 0
-0.446155 0.560187 0
-0.0400703 -0.0884232 0
-0.145524 -0.685161 0
-0.43494 0.277081 0
0.513794 -0.250956 0
-0.365858 -0.8375 0
0.270924 -0.800147 0
0.538277 0.163267 0
-0.103925 -0.926252 0
0.186987 -0.148377 0
-0.394928 0.085531 0
-0.299366 -0.204137 0
0.0177351 -0.0735733 0
0.0881142 0.404775 0
0.0108957 -0.195795 0
-0.0912828 -0.694744 0
0.0558241 -0.172963 0
0.196809 -0.122248 0
-0.120333 -0.350781 0
-0.190408 -0.115666 0
0.150657 -0.0828327 0
0.166372 -0.445728 0
-0.0131036 -0.382088 0
-0.00288642 -0.206204 0
0.02676 -0.292696 0
0.017443 -0.350134 0
0.0220012 -0.279877 0
-0.0405589 -0.244653 0
-0.0566637 -0.306667 0
0.0632227 -0.305363 0
0.0789707 -0.278449 0
-0.0634474 -0.304935 0
-0.086709 -0.301947 0
0.0282631 -0.271762 0
0.0480898 -0.318493 0
-0.0288809 -0.352893 0
-0.0416582 -0.33083 0
0.0182389 -0.339497 0
0.0333918 -0.361336 0
-0.0216103 -0.326826 0
-0.0477019 -0.299014 0
-0.00658641 -0.342437 0
0.0207743 -0.391795 0
0.00121277 -0.39945 0
-0.0119132 -0.38834 0
-0.00415235 -0.377377 0
-0.00492276 -0.383123 0
-0.0187758 -0.398328 0
-0.0260098 -0.405178 0
-0.0123445 -0.411599 0
0.00644655 -0.412698 0
0.00444636 -0.41127 0
-0.0119482 -0.428975 0
-0.0183098 -0.450282 0
-0.0128741 -0.445136 0
-0.00908218 -0.425475 0
-0.00944544 -0.420251 0
-0.00935054 -0.430878 0
-0.00884016 -0.441836 0
-0.00993835 -0.443861 0
-0.0112518 -0.440076 0
-0.0116034 -0.432899 0
-0.0112138 -0.431478 0
-0.0106036 -0.432773 0
-0.0103065 -0.4322 0
-0.00942314 -0.427937 0
-0.00788028 -0.425068 0
-0.00638344 -0.42623 0
-0.00575139 -0.430488 0
-0.00635192 -0.434848 0
-0.00806788 -0.436852 0
-0.0108432 -0.436147 0
-0.0145822 -0.434175 0
-0.0187014 -0.432528 0
-0.0225092 -0.431729 0
0.0713517 -0.538115 0
0.359307 0.0298433 0
-0.312698 0.171162 0
0.571511 0.3755 0
1.06136 -0.0582684 0
0.408867 -1.01075 0
-0.124734 0.840711 0
0.77444 0.388292 0
-1.56042 0.506403 0
-0.000665868 0.00915314 0
0.583024 0.230913 0
0.154286 -0.0089129 0
-0.274795 -0.921398 0
0.620959 0.762412 0
0.0666908 0.0372567 0
-0.194118 -0.194731 0
0.169697 0.381049 0
-0.224558 0.65213 0
-0.0642681 -0.0308109 0
-0.463773 0.162138 0
-0.411637 -0.296639 0
-0.615828 -0.11654 0