<?xml version='1.0' encoding='UTF-8'?>
<VTKFile byte_order='LittleEndian' version='0.1' type = 'UnstructuredGrid'>
<UnstructuredGrid>
<FieldData>
<DataArray type='Float64' Name='Time' NumberOfComponents='1' NumberOfTuples='1' format='ascii'>
2.161
</DataArray>
</FieldData>
<Piece NumberOfCells='808' NumberOfPoints='808'>
<Points>
<DataArray NumberOfComponents='3' type='Float64' Name='position' format='ascii'>
0 0 0
0 0.025 0
0 0.05 0
0 0.075 0
0 0.1 0
0 0.125 0
0 0.15 0
0 0.175 0
0.025 0 0
0.05 0 0
0.075 0 0
0.1 0 0
0.125 0 0
0.15 0 0
0.175 0 0
0.2 0 0
0.225 0 0
0.25 0 0
0.275 0 0
0.3 0 0
0.324763 -0.00145207 0
0.343273 -0.0074782 0
0.375398 -0.0380653 0
0.402108 -0.0575867 0
0.428765 -0.0740835 0
0.45368 -0.0865906 0
0.47822 -0.100317 0
0.504275 -0.113136 0
0.528831 -0.12445 0
0.553659 -0.137049 0
0.578756 -0.148901 0
0.60407 -0.159878 0
0.628651 -0.170927 0
0.653369 -0.182188 0
0.67953 -0.192499 0
0.703208 -0.202637 0
0.727595 -0.213296 0
0.754144 -0.223284 0
0.778724 -0.232715 0
0.803095 -0.242468 0
0.828523 -0.251928 0
0.853341 -0.260684 0
0.877995 -0.269661 0
0.902703 -0.278963 0
0.927338 -0.287645 0
0.952485 -0.295789 0
0.977562 -0.304217 0
1.00195 -0.312724 0
1.02653 -0.320804 0
1.05172 -0.328615 0
1.07672 -0.336283 0
1.10127 -0.343558 0
1.12596 -0.350575 0
1.1511 -0.357533 0
1.17643 -0.364237 0
1.20166 -0.37059 0
1.22672 -0.376837 0
1.25161 -0.383067 0
1.27643 -0.388961 0
1.30137 -0.394239 0
1.32648 -0.399025 0
1.35163 -0.403629 0
1.37669 -0.408199 0
1.40167 -0.412685 0
1.42663 -0.417059 0
1.45159 -0.421405 0
1.47648 -0.425785 0
1.50126 -0.430145 0
1.52599 -0.434359 0
1.55077 -0.43833 0
1.57565 -0.442034 0
1.60066 -0.445482 0
1.62576 -0.448675 0
1.6509 -0.451592 0
1.67605 -0.45421 0
1.70118 -0.456527 0
1.7263 -0.458557 0
1.75139 -0.460319 0
1.77646 -0.461825 0
1.8015 -0.463079 0
1.82651 -0.464089 0
1.85149 -0.464871 0
1.87644 -0.465449 0
1.90136 -0.465859 0
1.92625 -0.466135 0
1.95112 -0.46631 0
1.97598 -0.466413 0
2.00083 -0.466466 0
2.02569 -0.466485 0
2.05055 -0.466483 0
2.07543 -0.466468 0
2.10033 -0.466448 0
2.12524 -0.466427 0
2.15017 -0.466407 0
2.17512 -0.46639 0
2.20008 -0.466376 0
2.22505 -0.466366 0
2.25003 -0.466358 0
2.27502 -0.466353 0
2.30001 -0.46635 0
2.32501 -0.466347 0
2.35 -0.466346 0
2.375 -0.466345 0
2.4 -0.466345 0
2.425 -0.466344 0
2.45 -0.466344 0
2.475 -0.466344 0
2.5 -0.466344 0
0.0249093 0.0247695 0
0.0498585 0.0255494 0
0.0748964 0.0251063 0
0.0997916 0.0254151 0
0.124437 0.0253455 0
0.149747 0.0257956 0
0.174166 0.0253918 0
0.199089 0.0242151 0
0.224109 0.0230821 0
0.249194 0.0205278 0
0.274004 0.0196867 0
0.299229 0.016272 0
0.327246 0.00861839 0
0.351851 -0.00233802 0
0.377607 -0.0190359 0
0.403053 -0.0339304 0
0.428058 -0.0483841 0
0.453364 -0.062754 0
0.478894 -0.0763864 0
0.503848 -0.0887454 0
0.528669 -0.100601 0
0.554004 -0.113242 0
0.578969 -0.124621 0
0.604027 -0.135622 0
0.628903 -0.146498 0
0.653299 -0.157518 0
0.678521 -0.168368 0
0.703592 -0.178599 0
0.728407 -0.188568 0
0.753526 -0.1982 0
0.778396 -0.208009 0
0.803318 -0.21775 0
0.828413 -0.227157 0
0.853345 -0.23629 0
0.878098 -0.245248 0
0.902683 -0.254211 0
0.927376 -0.262883 0
0.95238 -0.271165 0
0.977306 -0.279486 0
1.00198 -0.287944 0
1.02676 -0.296103 0
1.05173 -0.303859 0
1.07656 -0.311413 0
1.10126 -0.318733 0
1.12609 -0.325843 0
1.15117 -0.33283 0
1.17639 -0.339527 0
1.2016 -0.345854 0
1.22667 -0.352024 0
1.25158 -0.358141 0
1.27645 -0.363972 0
1.30139 -0.369287 0
1.32647 -0.374143 0
1.35159 -0.378768 0
1.37667 -0.383317 0
1.40167 -0.387795 0
1.42664 -0.392177 0
1.45157 -0.396514 0
1.47645 -0.400855 0
1.50125 -0.405166 0
1.52601 -0.409353 0
1.5508 -0.413329 0
1.57569 -0.417058 0
1.60068 -0.420531 0
1.62576 -0.423737 0
1.65089 -0.426655 0
1.67604 -0.429267 0
1.70118 -0.431573 0
1.72629 -0.43359 0
1.75139 -0.435336 0
1.77645 -0.436826 0
1.80149 -0.438067 0
1.82651 -0.439065 0
1.85149 -0.439837 0
1.87644 -0.440408 0
1.90135 -0.440811 0
1.92625 -0.441083 0
1.95112 -0.441255 0
1.97598 -0.441357 0
2.00084 -0.441411 0
2.02569 -0.441434 0
2.05056 -0.441437 0
2.07543 -0.441429 0
2.10033 -0.441415 0
2.12524 -0.441401 0
2.15017 -0.441387 0
2.17512 -0.441375 0
2.20008 -0.441366 0
2.22505 -0.441359 0
2.25003 -0.441354 0
2.27502 -0.44135 0
2.30001 -0.441348 0
2.32501 -0.441346 0
2.35 -0.441345 0
2.375 -0.441345 0
2.4 -0.441344 0
2.425 -0.441344 0
2.45 -0.441344 0
2.475 -0.441344 0
2.5 -0.441344 0
0.0247607 0.0487251 0
0.0494611 0.048097 0
0.0742778 0.0469341 0
0.0989826 0.0468752 0
0.123842 0.0451885 0
0.14898 0.0449976 0
0.173831 0.0430499 0
0.199272 0.0424106 0
0.224134 0.0419224 0
0.249735 0.0392244 0
0.274779 0.0371345 0
0.300149 0.030904 0
0.327822 0.0254057 0
0.352751 0.0125776 0
0.378997 -2.50484e-05 0
0.404127 -0.0120625 0
0.42868 -0.0264985 0
0.453712 -0.0394917 0
0.479223 -0.0521263 0
0.503863 -0.0643006 0
0.528912 -0.0766482 0
0.554315 -0.0878344 0
0.57872 -0.099055 0
0.603216 -0.110574 0
0.628606 -0.122354 0
0.653852 -0.133543 0
0.678626 -0.143672 0
0.703484 -0.153701 0
0.728525 -0.163667 0
0.753485 -0.173452 0
0.778384 -0.183088 0
0.803331 -0.192704 0
0.828313 -0.202368 0
0.853314 -0.211613 0
0.878124 -0.220475 0
0.902703 -0.229329 0
0.927418 -0.238018 0
0.952334 -0.246362 0
0.977187 -0.254664 0
1.00199 -0.263014 0
1.02687 -0.271152 0
1.05172 -0.278948 0
1.07648 -0.286479 0
1.10127 -0.293822 0
1.1262 -0.300996 0
1.15125 -0.307986 0
1.17638 -0.314677 0
1.20153 -0.321006 0
1.22661 -0.327113 0
1.25157 -0.333114 0
1.27646 -0.338885 0
1.3014 -0.344242 0
1.32645 -0.349174 0
1.35156 -0.353843 0
1.37665 -0.358402 0
1.40167 -0.36288 0
1.42664 -0.367263 0
1.45156 -0.371586 0
1.47643 -0.375893 0
1.50124 -0.380163 0
1.52602 -0.384323 0
1.55083 -0.388298 0
1.57572 -0.392046 0
1.6007 -0.395546 0
1.62576 -0.398774 0
1.65089 -0.401704 0
1.67603 -0.404319 0
1.70117 -0.406619 0
1.72629 -0.408623 0
1.75139 -0.410354 0
1.77645 -0.411829 0
1.80149 -0.413056 0
1.8265 -0.414044 0
1.85148 -0.414808 0
1.87643 -0.415372 0
1.90135 -0.41577 0
1.92625 -0.416036 0
1.95112 -0.416205 0
1.97598 -0.416305 0
2.00084 -0.41636 0
2.02569 -0.416386 0
2.05056 -0.416394 0
2.07544 -0.416392 0
2.10033 -0.416386 0
2.12525 -0.416378 0
2.15018 -0.41637 0
2.17512 -0.416363 0
2.20008 -0.416357 0
2.22506 -0.416353 0
2.25004 -0.41635 0
2.27502 -0.416348 0
2.30001 -0.416346 0
2.32501 -0.416345 0
2.35 -0.416345 0
2.375 -0.416344 0
2.4 -0.416344 0
2.425 -0.416344 0
2.45 -0.416344 0
2.475 -0.416344 0
2.5 -0.416344 0
0.0248649 0.0738237 0
0.04925 0.0726174 0
0.0741206 0.0715695 0
0.0993987 0.0708532 0
0.124224 0.0690468 0
0.149082 0.0682772 0
0.174032 0.0664202 0
0.199282 0.0654775 0
0.224305 0.062977 0
0.250165 0.0598296 0
0.275338 0.0576236 0
0.300845 0.0511617 0
0.328457 0.0449847 0
0.353515 0.033973 0
0.379379 0.021813 0
0.40479 0.00939214 0
0.428987 -0.00376382 0
0.454164 -0.0158622 0
0.479299 -0.0272905 0
0.503616 -0.0397349 0
0.528572 -0.0515038 0
0.553913 -0.0639018 0
0.578818 -0.0751068 0
0.603491 -0.0856328 0
0.628535 -0.0974073 0
0.653789 -0.108616 0
0.678599 -0.118481 0
0.703355 -0.12882 0
0.728487 -0.139108 0
0.753599 -0.148804 0
0.778535 -0.158321 0
0.803369 -0.167868 0
0.828217 -0.177436 0
0.853194 -0.18667 0
0.878072 -0.195533 0
0.902735 -0.20441 0
0.927477 -0.21323 0
0.95237 -0.221606 0
0.977197 -0.229744 0
1.00199 -0.238012 0
1.02686 -0.246185 0
1.05168 -0.254008 0
1.07644 -0.261587 0
1.10132 -0.268978 0
1.12631 -0.276127 0
1.15133 -0.283082 0
1.17637 -0.289775 0
1.20145 -0.296107 0
1.22653 -0.302184 0
1.25154 -0.308112 0
1.27647 -0.313813 0
1.30141 -0.319169 0
1.32644 -0.324165 0
1.35154 -0.328899 0
1.37664 -0.333488 0
1.40168 -0.337971 0
1.42665 -0.342344 0
1.45156 -0.346648 0
1.47642 -0.350925 0
1.50123 -0.35516 0
1.52603 -0.359295 0
1.55085 -0.363265 0
1.57574 -0.367028 0
1.60071 -0.370555 0
1.62576 -0.373812 0
1.65088 -0.376763 0
1.67602 -0.379384 0
1.70117 -0.381679 0
1.72629 -0.383669 0
1.75139 -0.385383 0
1.77646 -0.386841 0
1.8015 -0.388055 0
1.82651 -0.389032 0
1.85149 -0.389787 0
1.87644 -0.390343 0
1.90136 -0.390733 0
1.92625 -0.390992 0
1.95112 -0.391157 0
1.97598 -0.391255 0
2.00084 -0.39131 0
2.0257 -0.391338 0
2.05056 -0.391351 0
2.07544 -0.391356 0
2.10033 -0.391356 0
2.12525 -0.391354 0
2.15018 -0.391352 0
2.17512 -0.39135 0
2.20008 -0.391348 0
2.22506 -0.391347 0
2.25004 -0.391346 0
2.27502 -0.391345 0
2.30001 -0.391345 0
2.32501 -0.391344 0
2.35 -0.391344 0
2.375 -0.391344 0
2.4 -0.391344 0
2.425 -0.391344 0
2.45 -0.391344 0
2.475 -0.391344 0
2.5 -0.391344 0
0.0246363 0.0987916 0
0.049076 0.0976074 0
0.0742596 0.0963884 0
0.0993853 0.0956987 0
0.124019 0.0941965 0
0.148987 0.0941996 0
0.174295 0.0917839 0
0.19943 0.0901729 0
0.224919 0.0872576 0
0.250331 0.0823343 0
0.275542 0.0794266 0
0.301479 0.0726053 0
0.327977 0.0660338 0
0.35387 0.0553506 0
0.379318 0.044907 0
0.404801 0.0325985 0
0.429082 0.021018 0
0.454264 0.0085494 0
0.479297 -0.00303451 0
0.503817 -0.0152216 0
0.529089 -0.0282566 0
0.55405 -0.0388113 0
0.578621 -0.0503648 0
0.603649 -0.0616709 0
0.628821 -0.0723163 0
0.65344 -0.0830246 0
0.67815 -0.0936127 0
0.703393 -0.104232 0
0.728599 -0.114454 0
0.753536 -0.124037 0
0.778475 -0.133553 0
0.803398 -0.143176 0
0.828261 -0.152653 0
0.853182 -0.161641 0
0.87803 -0.170485 0
0.902731 -0.179588 0
0.927506 -0.188449 0
0.952407 -0.196768 0
0.977252 -0.204808 0
1.00202 -0.212993 0
1.02681 -0.221222 0
1.05161 -0.22915 0
1.07644 -0.236806 0
1.10137 -0.244175 0
1.1264 -0.251248 0
1.15139 -0.258138 0
1.17635 -0.26481 0
1.20137 -0.27118 0
1.22644 -0.277287 0
1.25149 -0.283162 0
1.27646 -0.288776 0
1.30143 -0.2941 0
1.32645 -0.299147 0
1.35154 -0.303955 0
1.37663 -0.308587 0
1.40168 -0.313073 0
1.42665 -0.317429 0
1.45156 -0.32171 0
1.47641 -0.32596 0
1.50123 -0.330167 0
1.52603 -0.334277 0
1.55086 -0.338239 0
1.57574 -0.342016 0
1.60071 -0.345572 0
1.62576 -0.348862 0
1.65087 -0.351837 0
1.67602 -0.354466 0
1.70116 -0.356755 0
1.72629 -0.358729 0
1.75139 -0.360424 0
1.77646 -0.361864 0
1.8015 -0.363063 0
1.82651 -0.364029 0
1.85149 -0.364773 0
1.87644 -0.36532 0
1.90136 -0.365701 0
1.92626 -0.365953 0
1.95113 -0.366111 0
1.97599 -0.366205 0
2.00084 -0.36626 0
2.0257 -0.366291 0
2.05056 -0.366309 0
2.07544 -0.366319 0
2.10033 -0.366326 0
2.12525 -0.366331 0
2.15018 -0.366335 0
2.17512 -0.366338 0
2.20008 -0.36634 0
2.22506 -0.366341 0
2.25004 -0.366342 0
2.27502 -0.366343 0
2.30001 -0.366343 0
2.32501 -0.366344 0
2.35 -0.366344 0
2.375 -0.366344 0
2.4 -0.366344 0
2.425 -0.366344 0
2.45 -0.366344 0
2.475 -0.366344 0
2.5 -0.366344 0
0.0247086 0.122933 0
0.0493968 0.121437 0
0.0742962 0.11986 0
0.0989529 0.118682 0
0.124345 0.116371 0
0.149751 0.115125 0
0.174722 0.111962 0
0.1991 0.110434 0
0.224754 0.109217 0
0.250817 0.104432 0
0.27611 0.099878 0
0.302023 0.0933007 0
0.327747 0.0856692 0
0.353119 0.0766736 0
0.378899 0.0667579 0
0.404252 0.0558839 0
0.429083 0.0443735 0
0.454173 0.0325124 0
0.479117 0.0208587 0
0.50415 0.00936084 0
0.529208 -0.00229246 0
0.553957 -0.0127627 0
0.578694 -0.0256214 0
0.603551 -0.0373303 0
0.628723 -0.0477457 0
0.653488 -0.0585684 0
0.678279 -0.0689099 0
0.70345 -0.0793743 0
0.728412 -0.0896413 0
0.753282 -0.0991774 0
0.778388 -0.108721 0
0.803449 -0.118491 0
0.828334 -0.127922 0
0.853251 -0.136786 0
0.878082 -0.145609 0
0.902733 -0.154644 0
0.927457 -0.163515 0
0.952354 -0.17185 0
0.977262 -0.179865 0
1.00207 -0.187997 0
1.02683 -0.196289 0
1.05159 -0.204399 0
1.07643 -0.212117 0
1.1014 -0.219361 0
1.12643 -0.226309 0
1.15142 -0.233143 0
1.17634 -0.239817 0
1.20131 -0.246251 0
1.22635 -0.25241 0
1.25142 -0.258255 0
1.27644 -0.263779 0
1.30144 -0.26905 0
1.32647 -0.274131 0
1.35155 -0.279012 0
1.37664 -0.28369 0
1.40168 -0.288179 0
1.42666 -0.292511 0
1.45156 -0.296765 0
1.47641 -0.300992 0
1.50122 -0.305175 0
1.52603 -0.309265 0
1.55086 -0.31322 0
1.57574 -0.317011 0
1.6007 -0.3206 0
1.62575 -0.323925 0
1.65087 -0.326925 0
1.67602 -0.329562 0
1.70116 -0.331842 0
1.72629 -0.333799 0
1.75139 -0.335475 0
1.77646 -0.336898 0
1.8015 -0.338082 0
1.82652 -0.339036 0
1.8515 -0.339769 0
1.87645 -0.340305 0
1.90137 -0.340675 0
1.92626 -0.340917 0
1.95113 -0.341067 0
1.97599 -0.341157 0
2.00084 -0.341211 0
2.0257 -0.341244 0
2.05056 -0.341266 0
2.07544 -0.341283 0
2.10033 -0.341297 0
2.12525 -0.341308 0
2.15018 -0.341317 0
2.17512 -0.341325 0
2.20008 -0.341331 0
2.22506 -0.341335 0
2.25004 -0.341338 0
2.27502 -0.34134 0
2.30001 -0.341342 0
2.32501 -0.341343 0
2.35 -0.341343 0
2.375 -0.341344 0
2.4 -0.341344 0
2.425 -0.341344 0
2.45 -0.341344 0
2.475 -0.341344 0
2.5 -0.341344 0
0.0248213 0.1478 0
0.0494303 0.146744 0
0.0742215 0.145221 0
0.0990252 0.144288 0
0.124918 0.142536 0
0.149259 0.141022 0
0.174322 0.140308 0
0.200233 0.136422 0
0.224692 0.133058 0
0.251057 0.129688 0
0.276685 0.12375 0
0.302344 0.11805 0
0.328304 0.109244 0
0.353173 0.101299 0
0.379238 0.0909311 0
0.40405 0.0807361 0
0.429406 0.0684 0
0.454499 0.0580145 0
0.478886 0.0449763 0
0.503729 0.0348446 0
0.529001 0.0223475 0
0.553441 0.0101426 0
0.578578 -0.000142821 0
0.603767 -0.0118138 0
0.62856 -0.0236663 0
0.65342 -0.0343799 0
0.678556 -0.0443414 0
0.703531 -0.0544504 0
0.728142 -0.064641 0
0.753119 -0.0745059 0
0.778518 -0.0840776 0
0.803578 -0.0937645 0
0.8283 -0.103243 0
0.853195 -0.112151 0
0.878132 -0.120848 0
0.902806 -0.129638 0
0.927395 -0.138423 0
0.952197 -0.146943 0
0.977209 -0.155006 0
1.00216 -0.163083 0
1.02693 -0.171483 0
1.05163 -0.179727 0
1.07641 -0.187418 0
1.10137 -0.194537 0
1.12642 -0.201372 0
1.15141 -0.208152 0
1.17634 -0.214852 0
1.20127 -0.221364 0
1.22628 -0.227566 0
1.25134 -0.233381 0
1.27641 -0.23884 0
1.30146 -0.244061 0
1.3265 -0.249142 0
1.35156 -0.254079 0
1.37664 -0.258811 0
1.40169 -0.263298 0
1.42667 -0.267597 0
1.45157 -0.271821 0
1.47641 -0.276027 0
1.50122 -0.280193 0
1.52602 -0.284268 0
1.55084 -0.288221 0
1.57572 -0.29203 0
1.60068 -0.295652 0
1.62574 -0.299014 0
1.65086 -0.302036 0
1.67601 -0.304676 0
1.70116 -0.306943 0
1.72629 -0.30888 0
1.75139 -0.310536 0
1.77646 -0.311942 0
1.80151 -0.313113 0
1.82652 -0.314054 0
1.85151 -0.314775 0
1.87646 -0.315298 0
1.90138 -0.315655 0
1.92627 -0.315885 0
1.95114 -0.316026 0
1.97599 -0.316111 0
2.00084 -0.316163 0
2.0257 -0.316198 0
2.05056 -0.316224 0
2.07544 -0.316247 0
2.10033 -0.316267 0
2.12524 -0.316285 0
2.15017 -0.3163 0
2.17512 -0.316312 0
2.20008 -0.316322 0
2.22505 -0.316329 0
2.25003 -0.316334 0
2.27502 -0.316338 0
2.30001 -0.31634 0
2.32501 -0.316342 0
2.35 -0.316343 0
2.375 -0.316343 0
2.4 -0.316344 0
2.425 -0.316344 0
2.45 -0.316344 0
2.475 -0.316344 0
2.5 -0.316344 0
0.0246108 0.173084 0
0.049675 0.171558 0
0.0747357 0.16976 0
0.0995723 0.168215 0
0.124511 0.166201 0
0.149195 0.164525 0
0.175108 0.161396 0
0.199444 0.159515 0
0.225876 0.155936 0
0.250811 0.151836 0
0.275913 0.146992 0
0.302824 0.140564 0
0.327348 0.133474 0
0.353684 0.12424 0
0.379555 0.114626 0
0.403445 0.103414 0
0.429099 0.0931336 0
0.454442 0.081583 0
0.478516 0.0698225 0
0.504016 0.0579083 0
0.529221 0.0468539 0
0.553355 0.0345401 0
0.57837 0.0230965 0
0.603976 0.0126923 0
0.628231 0.00140491 0
0.652784 -0.00956774 0
0.678558 -0.019752 0
0.703647 -0.0300707 0
0.728018 -0.040464 0
0.753236 -0.0500919 0
0.778893 -0.0594207 0
0.803696 -0.0691448 0
0.828062 -0.0788307 0
0.852982 -0.0878084 0
0.878196 -0.0961855 0
0.902952 -0.104723 0
0.927313 -0.11357 0
0.951978 -0.122183 0
0.977134 -0.130376 0
1.00227 -0.138456 0
1.02706 -0.146815 0
1.05166 -0.155185 0
1.07636 -0.162817 0
1.1013 -0.169771 0
1.12639 -0.176559 0
1.15141 -0.183348 0
1.17634 -0.19005 0
1.20125 -0.196584 0
1.22622 -0.202822 0
1.25128 -0.208628 0
1.27638 -0.214021 0
1.30147 -0.219182 0
1.32653 -0.224263 0
1.35158 -0.229241 0
1.37665 -0.233996 0
1.4017 -0.238459 0
1.42669 -0.242714 0
1.45158 -0.246902 0
1.47641 -0.25109 0
1.50122 -0.255244 0
1.52601 -0.259308 0
1.55082 -0.263261 0
1.57569 -0.267091 0
1.60066 -0.27075 0
1.62572 -0.274145 0
1.65085 -0.277182 0
1.67601 -0.279816 0
1.70117 -0.282062 0
1.72629 -0.283975 0
1.75139 -0.285609 0
1.77647 -0.286999 0
1.80151 -0.288156 0
1.82653 -0.289083 0
1.85152 -0.289788 0
1.87647 -0.290294 0
1.90139 -0.290635 0
1.92628 -0.290852 0
1.95114 -0.290983 0
1.976 -0.291062 0
2.00084 -0.291112 0
2.0257 -0.291148 0
2.05056 -0.291179 0
2.07543 -0.291208 0
2.10033 -0.291235 0
2.12524 -0.291259 0
2.15017 -0.29128 0
2.17512 -0.291298 0
2.20008 -0.291312 0
2.22505 -0.291322 0
2.25003 -0.29133 0
2.27502 -0.291335 0
2.30001 -0.291338 0
2.32501 -0.291341 0
2.35 -0.291342 0
2.375 -0.291343 0
2.4 -0.291343 0
2.425 -0.291344 0
2.45 -0.291344 0
2.475 -0.291344 0
2.5 -0.291344 0
</DataArray>
</Points>
<PointData>
<DataArray NumberOfComponents='1' type='Int32' Name='Particle Type' format='ascii'>
0
0
0
0
0
0
0
0
0
0
0
0
0
0
0
0
0
0
0
0
0
0
1
1
1
1
1
1
1
1
1
1
1
1
1
1
1
1
1
1
1
1
1
1
1
1
1
1
1
1
1
1
1
1
1
1
1
1
1
1
1
1
1
1
1
1
1
1
1
1
1
1
1
1
1
1
1
1
1
1
1
1
1
1
1
1
1
1
1
1
1
1
1
1
1
1
1
1
1
1
1
1
1
1
1
1
1
1
1
1
1
1
1
1
1
1
1
1
1
1
1
1
1
1
1
1
1
1
1
1
1
1
1
1
1
1
1
1
1
1
1
1
1
1
1
1
1
1
1
1
1
1
1
1
1
1
1
1
1
1
1
1
1
1
1
1
1
1
1
1
1
1
1
1
1
1
1
1
1
1
1
1
1
1
1
1
1
1
1
1
1
1
1
1
1
1
1
1
1
1
1
1
1
1
1
1
1
1
1
1
1
1
1
1
1
1
1
1
1
1
1
1
1
1
1
1
1
1
1
1
1
1
1
1
1
1
1
1
1
1
1
1
1
1
1
1
1
1
1
1
1
1
1
1
1
1
1
1
1
1
1
1
1
1
1
1
1
1
1
1
1
1
1
1
1
1
1
1
1
1
1
1
1
1
1
1
1
1
1
1
1
1
1
1
1
1
1
1
1
1
1
1
1
1
1
1
1
1
1
1
1
1
1
1
1
1
1
1
1
1
1
1
1
1
1
1
1
1
1
1
1
1
1
1
1
1
1
1
1
1
1
1
1
1
1
1
1
1
1
1
1
1
1
1
1
1
1
1
1
1
1
1
1
1
1
1
1
1
1
1
1
1
1
1
1
1
1
1
1
1
1
1
1
1
1
1
1
1
1
1
1
1
1
1
1
1
1
1
1
1
1
1
1
1
1
1
1
1
1
1
1
1
1
1
1
1
1
1
1
1
1
1
1
1
1
1
1
1
1
1
1
1
1
1
1
1
1
1
1
1
1
1
1
1
1
1
1
1
1
1
1
1
1
1
1
1
1
1
1
1
1
1
1
1
1
1
1
1
1
1
1
1
1
1
1
1
1
1
1
1
1
1
1
1
1
1
1
1
1
1
1
1
1
1
1
1
1
1
1
1
1
1
1
1
1
1
1
1
1
1
1
1
1
1
1
1
1
1
1
1
1
1
1
1
1
1
1
1
1
1
1
1
1
1
1
1
1
1
1
1
1
1
1
1
1
1
1
1
1
1
1
1
1
1
1
1
1
1
1
1
1
1
1
1
1
1
1
1
1
1
1
1
1
1
1
1
1
1
1
1
1
1
1
1
1
1
1
1
1
1
1
1
1
1
1
1
1
1
1
1
1
1
1
1
1
1
1
1
1
1
1
1
1
1
1
1
1
1
1
1
1
1
1
1
1
1
1
1
1
1
1
1
1
1
1
1
1
1
1
1
1
1
1
1
1
1
1
1
1
1
1
1
1
1
1
1
1
1
1
1
1
1
1
1
1
1
1
1
1
1
1
1
1
1
1
1
1
1
1
1
1
1
1
1
1
1
1
1
1
1
1
1
1
1
1
1
1
1
1
1
1
1
1
1
1
1
1
1
1
1
1
1
1
1
1
1
1
1
1
1
1
1
1
1
1
1
1
1
1
1
1
1
1
1
1
1
1
1
1
1
1
1
1
1
1
1
1
1
1
1
1
1
1
1
1
1
1
1
1
1
1
1
1
1
1
1
1
1
1
1
1
1
1
1
1
1
1
1
1
1
1
1
1
1
1
1
1
1
1
1
1
1
1
1
1
1
1
1
1
1
1
1
1
1
1
1
1
1
</DataArray>
<DataArray NumberOfComponents='3' type='Float64' Name='Velocity' format='ascii'>
0 0 0
0 0 0
0 0 0
0 0 0
0 0 0
0 0 0
0 0 0
0 0 0
0 0 0
0 0 0
0 0 0
0 0 0
0 0 0
0 0 0
0 0 0
0 0 0
0 0 0
0 0 0
0 0 0
0 0 0
-0.00826399 -0.0550729 0
-0.0234203 -0.046683 0
-0.00575194 -0.00493672 0
-0.0241492 0.00786724 0
-0.0276776 -0.0566253 0
0.027578 -0.0879343 0
-0.0166705 -0.0324324 0
-0.0152472 -0.0926996 0
0.0158375 -0.0705676 0
-0.00786376 -0.0541834 0
-0.0102562 -0.0828574 0
-0.0104833 -0.0947859 0
0.0147625 -0.08334 0
-0.0302704 -0.0959354 0
-0.00383837 -0.11867 0
0.0458432 -0.100509 0
-0.0339919 -0.100927 0
-0.0295341 -0.131123 0
0.0229505 -0.134823 0
-0.00546583 -0.132079 0
-0.00945178 -0.153944 0
0.00849617 -0.161625 0
0.00517987 -0.145526 0
0.00697087 -0.149307 0
-0.000732047 -0.171767 0
-0.0101964 -0.174579 0
0.00690501 -0.166202 0
0.0171763 -0.173163 0
-0.000869233 -0.185434 0
-0.00902638 -0.190436 0
0.00540475 -0.199331 0
0.0115065 -0.210577 0
-0.000607894 -0.213878 0
-0.01229 -0.218031 0
-0.0132218 -0.228347 0
-0.00785832 -0.235168 0
-0.0014118 -0.235558 0
0.0027416 -0.240572 0
0.00166343 -0.257206 0
-0.00329515 -0.27617 0
-0.00643833 -0.286893 0
-0.00480109 -0.289612 0
-0.0013254 -0.290919 0
0.000350012 -0.294236 0
0.000574289 -0.296218 0
0.00193906 -0.295533 0
0.00505236 -0.294781 0
0.00779033 -0.297285 0
0.00788521 -0.303632 0
0.00507145 -0.311924 0
0.000889313 -0.320285 0
-0.0028173 -0.328347 0
-0.00503813 -0.336709 0
-0.00575031 -0.345731 0
-0.0054617 -0.355084 0
-0.00471582 -0.364179 0
-0.00384344 -0.372723 0
-0.00295153 -0.380826 0
-0.00202238 -0.388727 0
-0.00101292 -0.396499 0
8.71838e-05 -0.403954 0
0.00123912 -0.410753 0
0.00236945 -0.416596 0
0.00339408 -0.421332 0
0.00423697 -0.424983 0
0.00484075 -0.427684 0
0.00517228 -0.429614 0
0.00522564 -0.430948 0
0.00502275 -0.431828 0
0.00461006 -0.432366 0
0.0040508 -0.432651 0
0.00341437 -0.432757 0
0.00276551 -0.432744 0
0.00215598 -0.432661 0
0.00162033 -0.432547 0
0.00117573 -0.432427 0
0.000824892 -0.432317 0
0.000560363 -0.432225 0
0.00036906 -0.432154 0
0.000235948 -0.432102 0
0.000146601 -0.432065 0
8.86255e-05 -0.43204 0
5.21964e-05 -0.432024 0
3.00079e-05 -0.432014 0
1.69191e-05 -0.432008 0
9.49452e-06 -0.432004 0
5.55268e-06 -0.432002 0
3.75018e-06 -0.432001 0
-0.0214562 0.0333898 0
-0.00950679 -0.00185259 0
0.0131962 0.0130581 0
0.0262685 -0.00518635 0
0.00570012 0.0713794 0
0.00120273 0.0269675 0
0.00770785 0.104567 0
-0.0144598 0.0513836 0
0.0201995 0.0860459 0
-0.0400264 0.0153396 0
-0.0298869 0.045571 0
0.0887818 -0.0156436 0
-0.0369479 0.0412376 0
-0.0491125 0.0129185 0
0.0018552 -0.0286177 0
0.0122923 -0.056753 0
0.00441973 -0.00681785 0
-0.0174612 -0.00579642 0
-0.0132552 -0.0213693 0
0.00234077 -0.062957 0
-0.0118316 -0.0394832 0
-0.0170183 -0.0519105 0
-0.0063018 -0.0913575 0
-0.0069929 -0.0973246 0
0.017533 -0.0999017 0
0.00759864 -0.0872474 0
-0.0157331 -0.101763 0
-0.00289601 -0.119891 0
-0.00333292 -0.131531 0
-0.00361258 -0.130455 0
-0.00102994 -0.123761 0
-0.00787091 -0.133728 0
-0.0058489 -0.142559 0
0.00150999 -0.150897 0
0.00831213 -0.154217 0
0.00989273 -0.157668 0
0.00105201 -0.169369 0
-0.0035835 -0.174541 0
0.00346936 -0.169306 0
0.00557664 -0.171471 0
-0.000497518 -0.185132 0
-0.0001969 -0.194554 0
0.00577068 -0.200356 0
0.00565248 -0.207448 0
-0.00184268 -0.211671 0
-0.00917098 -0.217366 0
-0.0110572 -0.228858 0
-0.00762925 -0.237365 0
-0.00202023 -0.239418 0
0.00174718 -0.243944 0
0.00112013 -0.257553 0
-0.00259243 -0.274123 0
-0.00532264 -0.285305 0
-0.00473511 -0.289752 0
-0.00227253 -0.291458 0
-0.00029741 -0.293998 0
0.000897076 -0.296084 0
0.00253381 -0.296337 0
0.00496843 -0.296344 0
0.00694618 -0.298616 0
0.00696407 -0.303983 0
0.00470846 -0.311366 0
0.00117476 -0.319416 0
-0.00222079 -0.327698 0
-0.00451807 -0.336463 0
-0.00549086 -0.345813 0
-0.00543093 -0.355369 0
-0.00478984 -0.364594 0
-0.00391651 -0.373226 0
-0.00297657 -0.38137 0
-0.00200425 -0.389256 0
-0.000981006 -0.396968 0
0.000105929 -0.404344 0
0.00123269 -0.411071 0
0.00233946 -0.416857 0
0.0033483 -0.421543 0
0.0041832 -0.425138 0
0.00478453 -0.42777 0
0.00511754 -0.429619 0
0.005176 -0.430867 0
0.00498196 -0.431671 0
0.00458135 -0.432154 0
0.00403594 -0.432409 0
0.00341309 -0.43251 0
0.00277561 -0.432512 0
0.00217401 -0.432458 0
0.0016425 -0.432379 0
0.0011987 -0.432295 0
0.000846211 -0.432219 0
0.000578594 -0.432155 0
0.000383651 -0.432106 0
0.00024699 -0.432069 0
0.000154557 -0.432044 0
9.41124e-05 -0.432027 0
5.5835e-05 -0.432016 0
3.23399e-05 -0.432009 0
1.83764e-05 -0.432005 0
1.04034e-05 -0.432003 0
6.15333e-06 -0.432002 0
4.20205e-06 -0.432001 0
0.0071093 0.0031026 0
-0.00971477 -0.00848891 0
-0.018966 0.0123104 0
-0.0146209 -0.00585913 0
-0.0150922 -0.0285551 0
-0.00443686 -0.0904225 0
-0.0124111 -0.0262606 0
-0.00957921 -0.133102 0
0.0349414 -0.0491811 0
0.0122549 -0.0738034 0
-0.0152192 0.0228595 0
0.00433786 -0.0989424 0
0.0218202 -0.128077 0
-0.0155711 0.0251419 0
-0.00601878 -0.108294 0
-0.000791988 -0.0399223 0
0.00902413 -0.0221052 0
-0.0206202 -0.0492929 0
-0.00868629 -0.0628792 0
0.00230831 -0.0557214 0
-0.0173275 -0.080765 0
0.00265639 -0.0997531 0
0.0253329 -0.0736564 0
-0.00577455 -0.0567406 0
-0.0244569 -0.0610049 0
-0.00681398 -0.102329 0
0.00245525 -0.12623 0
-0.00364856 -0.126368 0
-0.00379401 -0.129812 0
-0.000477764 -0.130536 0
-0.00219604 -0.132606 0
-0.00437101 -0.127535 0
-0.00553942 -0.132462 0
-0.00198209 -0.149902 0
0.00786719 -0.157758 0
0.00997766 -0.159467 0
0.00248498 -0.168346 0
-4.70469e-05 -0.173617 0
0.00176598 -0.171693 0
0.000193418 -0.174862 0
-9.14117e-05 -0.184878 0
0.00399663 -0.194501 0
0.00557077 -0.200656 0
0.00180417 -0.205147 0
-0.00314928 -0.210047 0
-0.00670342 -0.217646 0
-0.0083216 -0.228988 0
-0.00691314 -0.238799 0
-0.00283372 -0.243264 0
0.000761816 -0.247542 0
0.000920065 -0.257765 0
-0.00190778 -0.271756 0
-0.00461337 -0.283331 0
-0.00491406 -0.288763 0
-0.00312217 -0.291179 0
-0.000837983 -0.29373 0
0.00111647 -0.29616 0
0.00297396 -0.297114 0
0.00490805 -0.297678 0
0.00631158 -0.299846 0
0.00627057 -0.30451 0
0.00445572 -0.31109 0
0.00144199 -0.318661 0
-0.00171017 -0.326884 0
-0.00408963 -0.335864 0
-0.00529712 -0.345535 0
-0.00543846 -0.355415 0
-0.0048852 -0.364908 0
-0.00400372 -0.373715 0
-0.00301565 -0.381922 0
-0.00200215 -0.389777 0
-0.000964216 -0.397405 0
0.000115033 -0.404691 0
0.00122587 -0.411352 0
0.00231991 -0.417094 0
0.00332319 -0.421747 0
0.00415794 -0.425298 0
0.00476124 -0.427867 0
0.00509637 -0.429635 0
0.005157 -0.430798 0
0.00496604 -0.431526 0
0.00457005 -0.431953 0
0.00403066 -0.432179 0
0.00341434 -0.432276 0
0.00278275 -0.432295 0
0.00218552 -0.43227 0
0.00165642 -0.432225 0
0.00121315 -0.432176 0
0.000859723 -0.432131 0
0.000590253 -0.432092 0
0.00039307 -0.432063 0
0.00025418 -0.432041 0
0.000159781 -0.432026 0
9.7743e-05 -0.432016 0
5.82601e-05 -0.43201 0
3.39049e-05 -0.432006 0
1.93614e-05 -0.432003 0
1.1022e-05 -0.432002 0
6.56121e-06 -0.432001 0
4.50092e-06 -0.432001 0
0.010152 -0.0112247 0
-0.00346859 -0.0136701 0
-0.00535554 0.0145838 0
0.00904187 -0.0201112 0
0.000538469 -0.00985998 0
0.00542409 -0.0245309 0
0.00827822 -0.0206113 0
-0.0209617 -0.0412379 0
-0.0211163 0.0181429 0
-0.00525811 -0.0959586 0
0.00814788 0.0440482 0
-0.0204593 0.00267345 0
-0.00156932 -0.0732004 0
-0.0233479 0.00464715 0
-0.0326063 -0.0292764 0
0.00532642 -0.0153335 0
0.010672 -0.0388576 0
-0.0150818 -0.0870267 0
0.0132089 -0.0624836 0
0.0145275 -0.063319 0
-0.0146764 -0.049629 0
-0.0137754 -0.0544627 0
2.21395e-05 -0.107206 0
-0.000727371 -0.0871684 0
-0.0165187 -0.0604368 0
-0.0106739 -0.110992 0
0.00443128 -0.12294 0
-0.00312445 -0.106894 0
-0.0111482 -0.121619 0
-0.00592818 -0.13476 0
0.000358176 -0.136583 0
0.00310905 -0.133568 0
-0.000901477 -0.135846 0
-0.00310017 -0.14902 0
0.00364831 -0.156121 0
0.00677436 -0.155139 0
0.00186877 -0.16354 0
0.000797108 -0.177067 0
0.00297683 -0.177576 0
0.00117726 -0.175835 0
0.00112567 -0.184154 0
0.00438788 -0.193679 0
0.00349615 -0.198353 0
-0.00125571 -0.204421 0
-0.00390473 -0.211325 0
-0.00410631 -0.218336 0
-0.00493618 -0.229222 0
-0.00565787 -0.239778 0
-0.00383671 -0.24542 0
-0.000638808 -0.250387 0
0.000495455 -0.259161 0
-0.00144837 -0.270532 0
-0.00416727 -0.280793 0
-0.00510372 -0.286966 0
-0.0037445 -0.290395 0
-0.00122983 -0.29358 0
0.00124517 -0.296498 0
0.00327373 -0.297901 0
0.00489027 -0.298806 0
0.00589588 -0.300956 0
0.00579821 -0.305154 0
0.00429209 -0.311029 0
0.00165523 -0.317992 0
-0.0013243 -0.325937 0
-0.0037755 -0.33501 0
-0.00516844 -0.34503 0
-0.00546646 -0.355349 0
-0.00497853 -0.365222 0
-0.00408844 -0.374261 0
-0.00306583 -0.382536 0
-0.00202507 -0.390339 0
-0.000976442 -0.397866 0
0.000102119 -0.405059 0
0.0012107 -0.41166 0
0.00230665 -0.417371 0
0.00331583 -0.421997 0
0.00415723 -0.425504 0
0.00476505 -0.428002 0
0.00510162 -0.429679 0
0.00516147 -0.430746 0
0.00496906 -0.431389 0
0.00457225 -0.431755 0
0.00403315 -0.431949 0
0.00341804 -0.432041 0
0.00278802 -0.432076 0
0.00219214 -0.43208 0
0.0016638 -0.432071 0
0.00122059 -0.432057 0
0.0008666 -0.432043 0
0.000596173 -0.432031 0
0.000397858 -0.432021 0
0.000257846 -0.432014 0
0.000162453 -0.432009 0
9.9607e-05 -0.432005 0
5.95094e-05 -0.432003 0
3.4714e-05 -0.432002 0
1.98722e-05 -0.432001 0
1.13432e-05 -0.432001 0
6.77185e-06 -0.432 0
4.65574e-06 -0.432 0
-0.0099059 -0.0136757 0
-0.0021446 -0.0284754 0
0.00494991 -0.0384105 0
-0.00914504 -0.0422248 0
-0.00696517 0.0104479 0
-0.00661688 -0.0168416 0
-0.00953892 0.0293317 0
0.00477592 0.0216953 0
-0.00200841 0.0553578 0
0.00620644 -0.0477278 0
0.00628914 -0.0410088 0
-0.0203461 0.00483221 0
0.022416 -0.00769346 0
0.0138769 -0.0108372 0
-0.00764031 -0.0111458 0
0.0114239 -0.0255675 0
0.0080722 -0.0244018 0
-0.0131303 -0.0329415 0
0.0044963 -0.0474999 0
-0.00303886 -0.00168356 0
-0.0150181 -0.0586246 0
0.00555934 -0.0980958 0
0.00302449 -0.0736332 0
-0.0111448 -0.104813 0
0.00151257 -0.107565 0
0.0114091 -0.0996688 0
-0.00690623 -0.0954287 0
-0.0182492 -0.100499 0
-0.00886503 -0.123224 0
-0.00205984 -0.13639 0
-0.00184785 -0.134459 0
0.000425412 -0.134603 0
-9.69111e-05 -0.14487 0
-0.00116752 -0.155693 0
0.00303668 -0.14926 0
0.00429996 -0.147668 0
0.000367036 -0.164478 0
0.000118656 -0.179972 0
0.00372364 -0.181989 0
0.0044151 -0.176414 0
0.00315617 -0.18131 0
0.00306614 -0.190084 0
0.000988639 -0.197164 0
-0.00312622 -0.206399 0
-0.00404513 -0.21431 0
-0.00189982 -0.220554 0
-0.00182354 -0.229396 0
-0.00403888 -0.238504 0
-0.00447235 -0.245868 0
-0.00228008 -0.253175 0
-0.000607638 -0.261463 0
-0.00157516 -0.27015 0
-0.00388733 -0.278282 0
-0.00504013 -0.284688 0
-0.00397687 -0.289441 0
-0.00144266 -0.293619 0
0.00127614 -0.297051 0
0.00343804 -0.298681 0
0.0049243 -0.299769 0
0.00570861 -0.301958 0
0.00555528 -0.305848 0
0.00421014 -0.311084 0
0.00178522 -0.317358 0
-0.0011033 -0.3249 0
-0.00361074 -0.334012 0
-0.00511954 -0.344427 0
-0.00550381 -0.355268 0
-0.0050451 -0.36558 0
-0.00414927 -0.374865 0
-0.00311587 -0.383194 0
-0.00207114 -0.390929 0
-0.00102127 -0.39835 0
6.32984e-05 -0.405457 0
0.00118567 -0.412011 0
0.00230017 -0.417699 0
0.00332696 -0.4223 0
0.00418055 -0.425757 0
0.00479366 -0.428174 0
0.00512973 -0.429749 0
0.00518553 -0.430709 0
0.00498771 -0.43126 0
0.00458562 -0.43156 0
0.00404215 -0.431719 0
0.00342379 -0.431805 0
0.00279153 -0.431856 0
0.0021942 -0.431891 0
0.00166497 -0.431917 0
0.00122123 -0.431938 0
0.000866943 -0.431955 0
0.000596352 -0.431969 0
0.000397949 -0.431979 0
0.000257892 -0.431986 0
0.000162475 -0.431991 0
9.96177e-05 -0.431995 0
5.95145e-05 -0.431997 0
3.47163e-05 -0.431998 0
1.98732e-05 -0.431999 0
1.13437e-05 -0.431999 0
6.77206e-06 -0.432 0
4.65585e-06 -0.432 0
-0.0113632 0.0329129 0
-0.00527472 0.04549 0
-0.0142316 0.0475648 0
-0.028559 0.0688985 0
0.0245756 0.0875799 0
-0.00195528 0.0191284 0
-0.0237866 0.0652667 0
0.0200665 -0.0142777 0