<?xml version='1.0' encoding='UTF-8'?>
<VTKFile byte_order='LittleEndian' version='0.1' type = 'UnstructuredGrid'>
<UnstructuredGrid>
<FieldData>
<DataArray type='Float64' Name='Time' NumberOfComponents='1' NumberOfTuples='1' format='ascii'>
1.441
</DataArray>
</FieldData>
<Piece NumberOfCells='808' NumberOfPoints='808'>
<Points>
<DataArray NumberOfComponents='3' type='Float64' Name='position' format='ascii'>
0 0 0
0 0.025 0
0 0.05 0
0 0.075 0
0 0.1 0
0 0.125 0
0 0.15 0
0 0.175 0
0.025 0 0
0.05 0 0
0.075 0 0
0.1 0 0
0.125 0 0
0.15 0 0
0.175 0 0
0.2 0 0
0.225 0 0
0.25 0 0
0.275 0 0
0.3 0 0
0.325 0 0
0.35 0 0
0.379048 -0.0227474 0
0.404032 -0.0350755 0
0.428874 -0.0454818 0
0.45392 -0.054955 0
0.478811 -0.0636347 0
0.503701 -0.0717631 0
0.528489 -0.0797218 0
0.553359 -0.0873333 0
0.578384 -0.0943969 0
0.603157 -0.101239 0
0.62809 -0.107882 0
0.653077 -0.114314 0
0.677878 -0.12046 0
0.702766 -0.126296 0
0.727668 -0.131946 0
0.75253 -0.137251 0
0.777502 -0.142145 0
0.802464 -0.146896 0
0.827313 -0.151601 0
0.852179 -0.156131 0
0.877089 -0.160517 0
0.901928 -0.164818 0
0.92669 -0.16896 0
0.951475 -0.17292 0
0.976333 -0.17679 0
1.00125 -0.180604 0
1.02622 -0.184263 0
1.05127 -0.187662 0
1.07636 -0.190788 0
1.10147 -0.193666 0
1.12655 -0.196273 0
1.15159 -0.198553 0
1.1766 -0.200473 0
1.20157 -0.202058 0
1.2265 -0.203366 0
1.25141 -0.204448 0
1.2763 -0.205332 0
1.30117 -0.206028 0
1.32604 -0.206546 0
1.3509 -0.206902 0
1.37576 -0.207124 0
1.40062 -0.207247 0
1.42549 -0.2073 0
1.45037 -0.207313 0
1.47527 -0.207304 0
1.50019 -0.207286 0
1.52513 -0.207267 0
1.55008 -0.207251 0
1.57505 -0.207239 0
1.60003 -0.20723 0
1.62502 -0.207224 0
1.65001 -0.207221 0
1.67501 -0.207219 0
1.7 -0.207217 0
1.725 -0.207217 0
1.75 -0.207216 0
1.775 -0.207216 0
1.8 -0.207216 0
1.825 -0.207216 0
1.85 -0.207216 0
1.875 -0.207216 0
1.9 -0.207216 0
1.925 -0.207216 0
1.95 -0.207216 0
1.975 -0.207216 0
2 -0.207216 0
2.025 -0.207216 0
2.05 -0.207216 0
2.075 -0.207216 0
2.1 -0.207216 0
2.125 -0.207216 0
2.15 -0.207216 0
2.175 -0.207216 0
2.2 -0.207216 0
2.225 -0.207216 0
2.25 -0.207216 0
2.275 -0.207216 0
2.3 -0.207216 0
2.325 -0.207216 0
2.35 -0.207216 0
2.375 -0.207216 0
2.4 -0.207216 0
2.425 -0.207216 0
2.45 -0.207216 0
2.475 -0.207216 0
2.5 -0.207216 0
0.0248808 0.0245652 0
0.049882 0.0242697 0
0.0749136 0.0240295 0
0.0999306 0.023825 0
0.12496 0.0236492 0
0.149849 0.0235879 0
0.174838 0.0231404 0
0.199842 0.0228764 0
0.224695 0.0221165 0
0.249801 0.021218 0
0.274911 0.0203295 0
0.300176 0.0186577 0
0.325949 0.0160511 0
0.353195 0.0100812 0
0.379428 -0.00139756 0
0.404155 -0.0117961 0
0.429037 -0.0213908 0
0.453901 -0.0304356 0
0.478768 -0.0390142 0
0.503647 -0.0471189 0
0.52846 -0.0549966 0
0.553338 -0.0625835 0
0.578345 -0.0696311 0
0.603259 -0.0763874 0
0.628157 -0.0830066 0
0.653029 -0.0894228 0
0.677852 -0.0955876 0
0.702754 -0.101452 0
0.727682 -0.107044 0
0.752581 -0.112316 0
0.777509 -0.117258 0
0.802431 -0.122014 0
0.827301 -0.126666 0
0.852172 -0.131165 0
0.877058 -0.135533 0
0.901898 -0.139811 0
0.926683 -0.14396 0
0.95148 -0.147959 0
0.976338 -0.15186 0
1.00126 -0.155679 0
1.02624 -0.159335 0
1.05128 -0.162738 0
1.07637 -0.165862 0
1.10147 -0.168717 0
1.12654 -0.171289 0
1.15159 -0.173536 0
1.17659 -0.175438 0
1.20156 -0.177016 0
1.2265 -0.17832 0
1.25141 -0.179399 0
1.2763 -0.180278 0
1.30117 -0.180969 0
1.32604 -0.181483 0
1.3509 -0.181839 0
1.37576 -0.182064 0
1.40062 -0.182191 0
1.42549 -0.182252 0
1.45038 -0.182273 0
1.47528 -0.182272 0
1.50019 -0.182262 0
1.52513 -0.182251 0
1.55009 -0.18224 0
1.57505 -0.182232 0
1.60003 -0.182226 0
1.62502 -0.182222 0
1.65001 -0.182219 0
1.67501 -0.182218 0
1.7 -0.182217 0
1.725 -0.182216 0
1.75 -0.182216 0
1.775 -0.182216 0
1.8 -0.182216 0
1.825 -0.182216 0
1.85 -0.182216 0
1.875 -0.182216 0
1.9 -0.182216 0
1.925 -0.182216 0
1.95 -0.182216 0
1.975 -0.182216 0
2 -0.182216 0
2.025 -0.182216 0
2.05 -0.182216 0
2.075 -0.182216 0
2.1 -0.182216 0
2.125 -0.182216 0
2.15 -0.182216 0
2.175 -0.182216 0
2.2 -0.182216 0
2.225 -0.182216 0
2.25 -0.182216 0
2.275 -0.182216 0
2.3 -0.182216 0
2.325 -0.182216 0
2.35 -0.182216 0
2.375 -0.182216 0
2.4 -0.182216 0
2.425 -0.182216 0
2.45 -0.182216 0
2.475 -0.182216 0
2.5 -0.182216 0
0.0248733 0.0492212 0
0.0498253 0.0486591 0
0.0747844 0.048125 0
0.0997244 0.0477121 0
0.124771 0.0470437 0
0.149768 0.0466865 0
0.174795 0.0459179 0
0.199902 0.0454141 0
0.224924 0.0444017 0
0.250115 0.04311 0
0.275332 0.0416503 0
0.300775 0.0389607 0
0.326816 0.0353245 0
0.353335 0.0291667 0
0.379228 0.0200873 0
0.404222 0.0111827 0
0.429127 0.00239779 0
0.45398 -0.00629007 0
0.478855 -0.0145636 0
0.503721 -0.0224329 0
0.528534 -0.0302289 0
0.553382 -0.0376593 0
0.578321 -0.0446553 0
0.603251 -0.0513984 0
0.628152 -0.0580209 0
0.653014 -0.0644593 0
0.677869 -0.0706426 0
0.702783 -0.076507 0
0.727712 -0.0820492 0
0.752609 -0.0873222 0
0.777507 -0.0923101 0
0.802406 -0.0970729 0
0.827281 -0.101681 0
0.852155 -0.10614 0
0.877034 -0.11049 0
0.901877 -0.114765 0
0.926675 -0.118935 0
0.951477 -0.122975 0
0.976337 -0.12691 0
1.00127 -0.130741 0
1.02626 -0.134399 0
1.0513 -0.137804 0
1.07638 -0.140922 0
1.10147 -0.143755 0
1.12655 -0.146293 0
1.15159 -0.14851 0
1.17659 -0.150395 0
1.20156 -0.15197 0
1.22649 -0.153277 0
1.2514 -0.154356 0
1.2763 -0.155234 0
1.30117 -0.15592 0
1.32604 -0.15643 0
1.35091 -0.156783 0
1.37577 -0.157008 0
1.40063 -0.157139 0
1.4255 -0.157207 0
1.45038 -0.157235 0
1.47528 -0.157243 0
1.5002 -0.157241 0
1.52514 -0.157236 0
1.55009 -0.15723 0
1.57506 -0.157225 0
1.60003 -0.157222 0
1.62502 -0.157219 0
1.65001 -0.157218 0
1.67501 -0.157217 0
1.7 -0.157217 0
1.725 -0.157216 0
1.75 -0.157216 0
1.775 -0.157216 0
1.8 -0.157216 0
1.825 -0.157216 0
1.85 -0.157216 0
1.875 -0.157216 0
1.9 -0.157216 0
1.925 -0.157216 0
1.95 -0.157216 0
1.975 -0.157216 0
2 -0.157216 0
2.025 -0.157216 0
2.05 -0.157216 0
2.075 -0.157216 0
2.1 -0.157216 0
2.125 -0.157216 0
2.15 -0.157216 0
2.175 -0.157216 0
2.2 -0.157216 0
2.225 -0.157216 0
2.25 -0.157216 0
2.275 -0.157216 0
2.3 -0.157216 0
2.325 -0.157216 0
2.35 -0.157216 0
2.375 -0.157216 0
2.4 -0.157216 0
2.425 -0.157216 0
2.45 -0.157216 0
2.475 -0.157216 0
2.5 -0.157216 0
0.0249243 0.0738843 0
0.0498447 0.0731189 0
0.0747671 0.0723536 0
0.0997368 0.0717754 0
0.1248 0.0709334 0
0.149891 0.0702901 0
0.17493 0.0692117 0
0.200002 0.0684023 0
0.225133 0.0672024 0
0.250411 0.0655446 0
0.275771 0.0634926 0
0.301276 0.060201 0
0.327163 0.0560072 0
0.353144 0.0502536 0
0.378877 0.0425508 0
0.404154 0.0344976 0
0.429124 0.0262874 0
0.453976 0.0180009 0
0.478844 0.00992988 0
0.50374 0.0021242 0
0.528568 -0.00540349 0
0.553402 -0.0127 0
0.578311 -0.0196601 0
0.603235 -0.0264435 0
0.62814 -0.0331212 0
0.653016 -0.0395479 0
0.6779 -0.0456644 0
0.702827 -0.0514959 0
0.72774 -0.057034 0
0.75261 -0.0623149 0
0.777484 -0.0673315 0
0.802371 -0.0720988 0
0.827251 -0.0766755 0
0.852132 -0.0811071 0
0.877016 -0.0854445 0
0.901867 -0.0897183 0
0.926671 -0.0939066 0
0.951473 -0.097987 0
0.976332 -0.101962 0
1.00127 -0.105814 0
1.02626 -0.109478 0
1.05131 -0.112882 0
1.07638 -0.115991 0
1.10147 -0.1188 0
1.12655 -0.121304 0
1.1516 -0.123491 0
1.1766 -0.125358 0
1.20156 -0.126928 0
1.22649 -0.128239 0
1.2514 -0.129323 0
1.27629 -0.130199 0
1.30117 -0.130881 0
1.32605 -0.131384 0
1.35091 -0.131732 0
1.37577 -0.131956 0
1.40063 -0.132089 0
1.4255 -0.132162 0
1.45038 -0.132199 0
1.47528 -0.132214 0
1.5002 -0.13222 0
1.52514 -0.132221 0
1.55009 -0.13222 0
1.57506 -0.132219 0
1.60004 -0.132218 0
1.62502 -0.132217 0
1.65001 -0.132217 0
1.67501 -0.132216 0
1.7 -0.132216 0
1.725 -0.132216 0
1.75 -0.132216 0
1.775 -0.132216 0
1.8 -0.132216 0
1.825 -0.132216 0
1.85 -0.132216 0
1.875 -0.132216 0
1.9 -0.132216 0
1.925 -0.132216 0
1.95 -0.132216 0
1.975 -0.132216 0
2 -0.132216 0
2.025 -0.132216 0
2.05 -0.132216 0
2.075 -0.132216 0
2.1 -0.132216 0
2.125 -0.132216 0
2.15 -0.132216 0
2.175 -0.132216 0
2.2 -0.132216 0
2.225 -0.132216 0
2.25 -0.132216 0
2.275 -0.132216 0
2.3 -0.132216 0
2.325 -0.132216 0
2.35 -0.132216 0
2.375 -0.132216 0
2.4 -0.132216 0
2.425 -0.132216 0
2.45 -0.132216 0
2.475 -0.132216 0
2.5 -0.132216 0
0.0249288 0.098724 0
0.0498589 0.0978293 0
0.0748388 0.0969241 0
0.099861 0.0962226 0
0.124929 0.0952141 0
0.15003 0.094488 0
0.175125 0.0933501 0
0.200236 0.0921804 0
0.225396 0.0905791 0
0.250636 0.088548 0
0.276115 0.0860916 0
0.301648 0.0824879 0
0.327333 0.0781687 0
0.353023 0.0724854 0
0.378623 0.0656899 0
0.403992 0.0580841 0
0.429011 0.0503896 0
0.453887 0.0423227 0
0.478765 0.0345822 0
0.503699 0.0270693 0
0.528526 0.0194988 0
0.553362 0.0121192 0
0.578305 0.00515943 0
0.603279 -0.00160037 0
0.62819 -0.00827858 0
0.653026 -0.0146482 0
0.677892 -0.0206826 0
0.702835 -0.0264662 0
0.727757 -0.0320033 0
0.75261 -0.0372952 0
0.777454 -0.0423244 0
0.802325 -0.0471019 0
0.82721 -0.0516736 0
0.852107 -0.0561006 0
0.877006 -0.0604277 0
0.901867 -0.0646892 0
0.926676 -0.0688847 0
0.951476 -0.0730002 0
0.976327 -0.0770183 0
1.00126 -0.0808991 0
1.02626 -0.0845737 0
1.0513 -0.0879759 0
1.07638 -0.0910726 0
1.10147 -0.093858 0
1.12656 -0.0963298 0
1.15161 -0.0984848 0
1.17661 -0.100331 0
1.20157 -0.101895 0
1.2265 -0.103209 0
1.2514 -0.104297 0
1.27629 -0.105174 0
1.30118 -0.105851 0
1.32605 -0.106346 0
1.35091 -0.106687 0
1.37577 -0.106907 0
1.40063 -0.107041 0
1.4255 -0.107119 0
1.45039 -0.107162 0
1.47528 -0.107186 0
1.5002 -0.107199 0
1.52514 -0.107206 0
1.55009 -0.10721 0
1.57506 -0.107213 0
1.60004 -0.107214 0
1.62502 -0.107215 0
1.65001 -0.107215 0
1.67501 -0.107216 0
1.7 -0.107216 0
1.725 -0.107216 0
1.75 -0.107216 0
1.775 -0.107216 0
1.8 -0.107216 0
1.825 -0.107216 0
1.85 -0.107216 0
1.875 -0.107216 0
1.9 -0.107216 0
1.925 -0.107216 0
1.95 -0.107216 0
1.975 -0.107216 0
2 -0.107216 0
2.025 -0.107216 0
2.05 -0.107216 0
2.075 -0.107216 0
2.1 -0.107216 0
2.125 -0.107216 0
2.15 -0.107216 0
2.175 -0.107216 0
2.2 -0.107216 0
2.225 -0.107216 0
2.25 -0.107216 0
2.275 -0.107216 0
2.3 -0.107216 0
2.325 -0.107216 0
2.35 -0.107216 0
2.375 -0.107216 0
2.4 -0.107216 0
2.425 -0.107216 0
2.45 -0.107216 0
2.475 -0.107216 0
2.5 -0.107216 0
0.0249219 0.123604 0
0.0498922 0.122545 0
0.0749278 0.121558 0
0.0999686 0.120617 0
0.124967 0.119561 0
0.150117 0.118783 0
0.17529 0.117505 0
0.200463 0.116141 0
0.22579 0.114289 0
0.250957 0.111882 0
0.276302 0.109195 0
0.301859 0.105499 0
0.327419 0.101047 0
0.352971 0.0954999 0
0.378407 0.0890551 0
0.403747 0.0819678 0
0.428841 0.0745631 0
0.453717 0.0668815 0
0.478675 0.0594712 0
0.503698 0.0518709 0
0.528543 0.0443177 0
0.553361 0.0369699 0
0.578289 0.0299279 0
0.603311 0.0231998 0
0.628244 0.0166065 0
0.653022 0.0102687 0
0.677847 0.00426914 0
0.702814 -0.0014736 0
0.727775 -0.00698216 0
0.75263 -0.0122449 0
0.777436 -0.0172705 0
0.802271 -0.0220749 0
0.827157 -0.0266839 0
0.852078 -0.0311304 0
0.877 -0.0354431 0
0.901877 -0.0396758 0
0.926692 -0.0438644 0
0.951486 -0.0480078 0
0.976325 -0.0520701 0
1.00124 -0.0559856 0
1.02624 -0.0596756 0
1.05128 -0.0630782 0
1.07637 -0.0661654 0
1.10147 -0.0689305 0
1.12656 -0.0713723 0
1.15162 -0.0734951 0
1.17663 -0.075318 0
1.20159 -0.0768721 0
1.22651 -0.0781868 0
1.25141 -0.0792793 0
1.27629 -0.0801571 0
1.30118 -0.0808292 0
1.32605 -0.0813154 0
1.35092 -0.0816471 0
1.37578 -0.0818617 0
1.40064 -0.0819951 0
1.42551 -0.0820763 0
1.45039 -0.082126 0
1.47528 -0.0821573 0
1.5002 -0.0821775 0
1.52514 -0.082191 0
1.55009 -0.0822001 0
1.57506 -0.0822062 0
1.60003 -0.0822101 0
1.62502 -0.0822126 0
1.65001 -0.0822141 0
1.67501 -0.0822149 0
1.7 -0.0822154 0
1.725 -0.0822157 0
1.75 -0.0822159 0
1.775 -0.0822159 0
1.8 -0.082216 0
1.825 -0.082216 0
1.85 -0.082216 0
1.875 -0.082216 0
1.9 -0.082216 0
1.925 -0.082216 0
1.95 -0.082216 0
1.975 -0.082216 0
2 -0.082216 0
2.025 -0.082216 0
2.05 -0.082216 0
2.075 -0.082216 0
2.1 -0.082216 0
2.125 -0.082216 0
2.15 -0.082216 0
2.175 -0.082216 0
2.2 -0.082216 0
2.225 -0.082216 0
2.25 -0.082216 0
2.275 -0.082216 0
2.3 -0.082216 0
2.325 -0.082216 0
2.35 -0.082216 0
2.375 -0.082216 0
2.4 -0.082216 0
2.425 -0.082216 0
2.45 -0.082216 0
2.475 -0.082216 0
2.5 -0.082216 0
0.0249018 0.148702 0
0.0498796 0.14773 0
0.0749412 0.146805 0
0.0999783 0.145888 0
0.125081 0.14492 0
0.150346 0.143779 0
0.175439 0.142339 0
0.200488 0.140903 0
0.225862 0.139081 0
0.251265 0.136454 0
0.276494 0.133389 0
0.30198 0.129617 0
0.32758 0.1249 0
0.353004 0.119381 0
0.378274 0.113017 0
0.403632 0.106229 0
0.428763 0.0989119 0
0.453571 0.0915407 0
0.478581 0.0840383 0
0.503622 0.0764724 0
0.528483 0.069182 0
0.553316 0.0619044 0
0.578269 0.0547768 0
0.603338 0.04799 0
0.628268 0.0414851 0
0.652998 0.0352101 0
0.677796 0.0291669 0
0.702789 0.0234105 0
0.727805 0.0179813 0
0.752672 0.0128156 0
0.777431 0.00781906 0
0.802218 0.0029601 0
0.827099 -0.00173375 0
0.852047 -0.00621079 0
0.876999 -0.0104975 0
0.901895 -0.0146867 0
0.926713 -0.0188567 0
0.951496 -0.0230201 0
0.976318 -0.0271246 0
1.00122 -0.031078 0
1.02621 -0.0347872 0
1.05126 -0.0381932 0
1.07635 -0.0412741 0
1.10146 -0.0440235 0
1.12657 -0.0464383 0
1.15164 -0.0485282 0
1.17665 -0.0503233 0
1.2016 -0.0518624 0
1.22651 -0.0531743 0
1.25141 -0.0542692 0
1.27629 -0.0551472 0
1.30118 -0.0558143 0
1.32605 -0.0562912 0
1.35092 -0.0566132 0
1.37578 -0.056821 0
1.40064 -0.0569522 0
1.42551 -0.0570358 0
1.45039 -0.0570909 0
1.47528 -0.0571291 0
1.5002 -0.0571564 0
1.52513 -0.057176 0
1.55009 -0.05719 0
1.57505 -0.0571997 0
1.60003 -0.0572061 0
1.62502 -0.0572102 0
1.65001 -0.0572127 0
1.67501 -0.0572142 0
1.7 -0.0572151 0
1.725 -0.0572155 0
1.75 -0.0572158 0
1.775 -0.0572159 0
1.8 -0.0572159 0
1.825 -0.057216 0
1.85 -0.057216 0
1.875 -0.057216 0
1.9 -0.057216 0
1.925 -0.057216 0
1.95 -0.057216 0
1.975 -0.057216 0
2 -0.057216 0
2.025 -0.057216 0
2.05 -0.057216 0
2.075 -0.057216 0
2.1 -0.057216 0
2.125 -0.057216 0
2.15 -0.057216 0
2.175 -0.057216 0
2.2 -0.057216 0
2.225 -0.057216 0
2.25 -0.057216 0
2.275 -0.057216 0
2.3 -0.057216 0
2.325 -0.057216 0
2.35 -0.057216 0
2.375 -0.057216 0
2.4 -0.057216 0
2.425 -0.057216 0
2.45 -0.057216 0
2.475 -0.057216 0
2.5 -0.057216 0
0.0249543 0.173467 0
0.0499755 0.172413 0
0.0750414 0.171282 0
0.100013 0.170386 0
0.125255 0.169277 0
0.150148 0.168184 0
0.175417 0.16697 0
0.200818 0.165193 0
0.225753 0.163306 0
0.251394 0.160705 0
0.276702 0.157435 0
0.301876 0.15365 0
0.327735 0.148833 0
0.353014 0.143343 0
0.378044 0.13728 0
0.403595 0.130449 0
0.428776 0.123367 0
0.453445 0.116128 0
0.478439 0.108626 0
0.503662 0.10121 0
0.528442 0.0939216 0
0.553071 0.0866981 0
0.578179 0.0795345 0
0.603432 0.0726919 0
0.628315 0.0662897 0
0.652957 0.060038 0
0.677732 0.0539144 0
0.702769 0.0481659 0
0.727855 0.0428479 0
0.75273 0.0377966 0
0.777426 0.0328347 0
0.802163 0.0279139 0
0.827047 0.0231385 0
0.852024 0.0186409 0
0.877005 0.0143937 0
0.90192 0.0102566 0
0.926736 0.00611392 0
0.9515 0.00193938 0
0.976302 -0.00220352 0
1.0012 -0.00619505 0
1.02619 -0.0099237 0
1.05124 -0.0133332 0
1.07633 -0.01641 0
1.10146 -0.0191469 0
1.12658 -0.0215358 0
1.15166 -0.0235894 0
1.17667 -0.0253493 0
1.20162 -0.0268655 0
1.22652 -0.0281684 0
1.25141 -0.029262 0
1.2763 -0.0301386 0
1.30118 -0.0307998 0
1.32605 -0.0312672 0
1.35092 -0.031579 0
1.37578 -0.0317794 0
1.40064 -0.0319077 0
1.4255 -0.0319929 0
1.45038 -0.0320532 0
1.47528 -0.0320983 0
1.50019 -0.0321329 0
1.52513 -0.0321591 0
1.55008 -0.0321785 0
1.57505 -0.0321922 0
1.60003 -0.0322014 0
1.62502 -0.0322074 0
1.65001 -0.0322111 0
1.67501 -0.0322133 0
1.7 -0.0322146 0
1.725 -0.0322153 0
1.75 -0.0322156 0
1.775 -0.0322158 0
1.8 -0.0322159 0
1.825 -0.032216 0
1.85 -0.032216 0
1.875 -0.032216 0
1.9 -0.032216 0
1.925 -0.032216 0
1.95 -0.032216 0
1.975 -0.032216 0
2 -0.032216 0
2.025 -0.032216 0
2.05 -0.032216 0
2.075 -0.032216 0
2.1 -0.032216 0
2.125 -0.032216 0
2.15 -0.032216 0
2.175 -0.032216 0
2.2 -0.032216 0
2.225 -0.032216 0
2.25 -0.032216 0
2.275 -0.032216 0
2.3 -0.032216 0
2.325 -0.032216 0
2.35 -0.032216 0
2.375 -0.032216 0
2.4 -0.032216 0
2.425 -0.032216 0
2.45 -0.032216 0
2.475 -0.032216 0
2.5 -0.032216 0
</DataArray>
</Points>
<PointData>
<DataArray NumberOfComponents='1' type='Int32' Name='Particle Type' format='ascii'>
0
0
0
0
0
0
0
0
0
0
0
0
0
0
0
0
0
0
0
0
0
0
1
1
1
1
1
1
1
1
1
1
1
1
1
1
1
1
1
1
1
1
1
1
1
1
1
1
1
1
1
1
1
1
1
1
1
1
1
1
1
1
1
1
1
1
1
1
1
1
1
1
1
1
1
1
1
1
1
1
1
1
1
1
1
1
1
1
1
1
1
1
1
1
1
1
1
1
1
1
1
1
1
1
1
1
1
1
1
1
1
1
1
1
1
1
1
1
1
1
1
1
1
1
1
1
1
1
1
1
1
1
1
1
1
1
1
1
1
1
1
1
1
1
1
1
1
1
1
1
1
1
1
1
1
1
1
1
1
1
1
1
1
1
1
1
1
1
1
1
1
1
1
1
1
1
1
1
1
1
1
1
1
1
1
1
1
1
1
1
1
1
1
1
1
1
1
1
1
1
1
1
1
1
1
1
1
1
1
1
1
1
1
1
1
1
1
1
1
1
1
1
1
1
1
1
1
1
1
1
1
1
1
1
1
1
1
1
1
1
1
1
1
1
1
1
1
1
1
1
1
1
1
1
1
1
1
1
1
1
1
1
1
1
1
1
1
1
1
1
1
1
1
1
1
1
1
1
1
1
1
1
1
1
1
1
1
1
1
1
1
1
1
1
1
1
1
1
1
1
1
1
1
1
1
1
1
1
1
1
1
1
1
1
1
1
1
1
1
1
1
1
1
1
1
1
1
1
1
1
1
1
1
1
1
1
1
1
1
1
1
1
1
1
1
1
1
1
1
1
1
1
1
1
1
1
1
1
1
1
1
1
1
1
1
1
1
1
1
1
1
1
1
1
1
1
1
1
1
1
1
1
1
1
1
1
1
1
1
1
1
1
1
1
1
1
1
1
1
1
1
1
1
1
1
1
1
1
1
1
1
1
1
1
1
1
1
1
1
1
1
1
1
1
1
1
1
1
1
1
1
1
1
1
1
1
1
1
1
1
1
1
1
1
1
1
1
1
1
1
1
1
1
1
1
1
1
1
1
1
1
1
1
1
1
1
1
1
1
1
1
1
1
1
1
1
1
1
1
1
1
1
1
1
1
1
1
1
1
1
1
1
1
1
1
1
1
1
1
1
1
1
1
1
1
1
1
1
1
1
1
1
1
1
1
1
1
1
1
1
1
1
1
1
1
1
1
1
1
1
1
1
1
1
1
1
1
1
1
1
1
1
1
1
1
1
1
1
1
1
1
1
1
1
1
1
1
1
1
1
1
1
1
1
1
1
1
1
1
1
1
1
1
1
1
1
1
1
1
1
1
1
1
1
1
1
1
1
1
1
1
1
1
1
1
1
1
1
1
1
1
1
1
1
1
1
1
1
1
1
1
1
1
1
1
1
1
1
1
1
1
1
1
1
1
1
1
1
1
1
1
1
1
1
1
1
1
1
1
1
1
1
1
1
1
1
1
1
1
1
1
1
1
1
1
1
1
1
1
1
1
1
1
1
1
1
1
1
1
1
1
1
1
1
1
1
1
1
1
1
1
1
1
1
1
1
1
1
1
1
1
1
1
1
1
1
1
1
1
1
1
1
1
1
1
1
1
1
1
1
1
1
1
1
1
1
1
1
1
1
1
1
1
1
1
1
1
1
1
1
1
1
1
1
1
1
1
1
1
1
1
1
1
1
1
1
1
1
1
1
1
1
1
1
1
1
1
1
1
1
1
1
1
1
1
1
1
1
1
1
1
1
1
1
1
1
1
1
1
1
1
1
1
1
1
1
1
1
1
1
1
1
1
1
1
1
1
1
1
1
1
1
1
1
1
1
1
1
</DataArray>
<DataArray NumberOfComponents='3' type='Float64' Name='Velocity' format='ascii'>
0 0 0
0 0 0
0 0 0
0 0 0
0 0 0
0 0 0
0 0 0
0 0 0
0 0 0
0 0 0
0 0 0
0 0 0
0 0 0
0 0 0
0 0 0
0 0 0
0 0 0
0 0 0
0 0 0
0 0 0
0 0 0
0 0 0
0.000653864 -0.0114208 0
0.0104323 -0.0264573 0
0.00282507 -0.023198 0
-0.000304602 -0.0319861 0
0.00258527 -0.0415796 0
0.00262273 -0.0471697 0
0.00503531 -0.0491267 0
-0.00190634 -0.0631896 0
0.0018083 -0.073558 0
0.00380382 -0.0784585 0
-0.00275624 -0.0850876 0
0.00145192 -0.0926188 0
0.00340083 -0.102488 0
0.00103867 -0.109451 0
0.00247458 -0.116781 0
0.000879438 -0.129665 0
-0.00120799 -0.138306 0
0.00182362 -0.139689 0
0.00373934 -0.142788 0
0.00230705 -0.148583 0
0.00307223 -0.152391 0
0.00622225 -0.156655 0
0.00731384 -0.162699 0
0.00565111 -0.166966 0
0.00348191 -0.168535 0
0.00151403 -0.171276 0
-0.000750433 -0.177641 0
-0.00291511 -0.185859 0
-0.00399344 -0.193698 0
-0.0037136 -0.201537 0
-0.00260759 -0.21093 0
-0.00125816 -0.222004 0
9.74829e-05 -0.233226 0
0.00141312 -0.243011 0
0.00261185 -0.250912 0
0.00357518 -0.257476 0
0.00424469 -0.263432 0
0.00466086 -0.269121 0
0.00490448 -0.274433 0
0.0050225 -0.279055 0
0.00500544 -0.282733 0
0.00481693 -0.28539 0
0.00443754 -0.287115 0
0.00388975 -0.288098 0
0.00323481 -0.288556 0
0.00255114 -0.288686 0
0.0019102 -0.288638 0
0.00136069 -0.288515 0
0.000924315 -0.288379 0
0.00060027 -0.28826 0
0.000373594 -0.288168 0
0.000223347 -0.288104 0
0.000128532 -0.288061 0
7.13404e-05 -0.288034 0
3.82585e-05 -0.288019 0
1.9856e-05 -0.28801 0
9.98778e-06 -0.288005 0
4.87587e-06 -0.288002 0
2.31303e-06 -0.288001 0
1.06747e-06 -0.288001 0
4.79779e-07 -0.288 0
2.10214e-07 -0.288 0
8.98703e-08 -0.288 0
3.75212e-08 -0.288 0
1.53103e-08 -0.288 0
6.11039e-09 -0.288 0
2.38687e-09 -0.288 0
9.13203e-10 -0.288 0
3.42355e-10 -0.288 0
1.25801e-10 -0.288 0
4.5449e-11 -0.288 0
1.61468e-11 -0.288 0
5.62646e-12 -0.288 0
1.95042e-12 -0.288 0
6.36762e-13 -0.288 0
1.36276e-13 -0.288 0
1.78945e-14 -0.288 0
2.07456e-15 -0.288 0
1.28517e-15 -0.288 0
-2.57772e-15 -0.288 0
-2.67706e-15 -0.288 0
1.86487e-15 -0.288 0
9.97376e-17 -0.288 0
-8.74691e-16 -0.288 0
1.40475e-15 -0.288 0
1.17469e-15 -0.288 0
-0.00182405 -0.00474682 0
-0.00199165 -0.00840962 0
-0.000394322 -0.0155963 0
-0.000169111 -0.0135228 0
0.00118471 -0.0197574 0
0.00104556 -0.0134017 0
-0.00393222 -0.0143199 0
0.00287102 -0.0148188 0
0.00135609 -0.00543058 0
-0.00539592 -0.0193141 0
-0.00120499 -0.0177106 0
0.00232771 -0.0141027 0
0.00311563 -0.0167442 0
0.00359629 -0.0133984 0
0.00308068 -0.0230581 0
0.00627163 -0.0350846 0
0.00701162 -0.0343086 0
0.00491357 -0.0347613 0
0.00302681 -0.0383583 0
0.00283296 -0.0460523 0
0.00282094 -0.0487263 0
-0.00259355 -0.0615533 0
-0.00266955 -0.0755496 0
0.000450413 -0.0806568 0
0.00132767 -0.0855076 0
0.00362368 -0.0919366 0
0.00279258 -0.100443 0
0.000250786 -0.109406 0
0.000659805 -0.11854 0
0.000895185 -0.129225 0
0.000699735 -0.13722 0
0.00229464 -0.14103 0
0.00340797 -0.144625 0
0.0029448 -0.14969 0
0.00359452 -0.153238 0
0.00570227 -0.156817 0
0.00664269 -0.161595 0
0.00540519 -0.165501 0
0.00324263 -0.167839 0
0.00111057 -0.171208 0
-0.00094819 -0.17755 0
-0.0027241 -0.185792 0
-0.00365038 -0.194166 0
-0.00348393 -0.202632 0
-0.00251999 -0.212181 0
-0.00120507 -0.222918 0
0.000170062 -0.233684 0
0.00146549 -0.243192 0
0.00259536 -0.251029 0
0.00349488 -0.257627 0
0.00414445 -0.263609 0
0.00457953 -0.269273 0
0.00485287 -0.274514 0
0.00498991 -0.27904 0
0.00497764 -0.282617 0
0.00478821 -0.285186 0
0.00441154 -0.286849 0
0.00387373 -0.287803 0
0.00323365 -0.288265 0
0.0025648 -0.288424 0
0.00193455 -0.288421 0
0.00138991 -0.288348 0
0.000953178 -0.288258 0
0.000625326 -0.288177 0
0.00039332 -0.288114 0
0.000237692 -0.28807 0
0.000138285 -0.288041 0
7.75949e-05 -0.288023 0
4.20652e-05 -0.288012 0
2.20661e-05 -0.288006 0
1.12167e-05 -0.288003 0
5.53241e-06 -0.288002 0
2.651e-06 -0.288001 0
1.2355e-06 -0.288 0
5.60623e-07 -0.288 0
2.47925e-07 -0.288 0
1.06952e-07 -0.288 0
4.50447e-08 -0.288 0
1.85367e-08 -0.288 0
7.45914e-09 -0.288 0
2.93684e-09 -0.288 0
1.13232e-09 -0.288 0
4.27765e-10 -0.288 0
1.58389e-10 -0.288 0
5.75015e-11 -0.288 0
2.05412e-11 -0.288 0
7.21642e-12 -0.288 0
2.49142e-12 -0.288 0
8.44243e-13 -0.288 0
2.3928e-13 -0.288 0
3.02104e-14 -0.288 0
2.39332e-15 -0.288 0
1.72308e-16 -0.288 0
-2.91331e-16 -0.288 0
5.60437e-16 -0.288 0
2.58915e-16 -0.288 0
-7.52754e-16 -0.288 0
-2.88554e-16 -0.288 0
-4.1658e-16 -0.288 0
-4.1324e-16 -0.288 0
-0.000150013 0.000135652 0
-0.000402364 0.00371814 0
0.00057279 -0.00203537 0
-0.000248486 0.00650521 0
-0.000459321 -0.000850411 0
0.00131935 -0.00355266 0
-0.0026253 -0.00487542 0
0.00052926 -0.0100477 0
0.00145278 0.00208848 0
-0.000198097 -0.00795135 0
0.00189267 -0.00270725 0
0.000931097 -0.00305015 0
0.00143209 -0.0151524 0
0.0053231 -0.0125275 0
0.00415751 -0.0196015 0
0.00314576 -0.031591 0
0.00435917 -0.0313274 0
0.00224736 -0.0347025 0
0.00126459 -0.0468221 0
0.00248103 -0.0484353 0
0.00323585 -0.0538786 0
0.000275431 -0.0664637 0
-0.000991017 -0.0768303 0
0.000173982 -0.0809937 0
0.00158359 -0.0840949 0
0.00275314 -0.0900769 0
0.00155588 -0.0988759 0
-7.78155e-05 -0.109805 0
0.000615749 -0.119402 0
0.00159236 -0.12814 0
0.00189113 -0.136532 0
0.00275967 -0.142144 0
0.00341833 -0.146612 0
0.00321944 -0.150914 0
0.0037317 -0.153545 0
0.00539007 -0.156255 0
0.0063047 -0.160142 0
0.0052271 -0.163889 0
0.00294569 -0.166903 0
0.00065879 -0.170923 0
-0.00123472 -0.177473 0
-0.00268172 -0.185902 0
-0.00345329 -0.194768 0
-0.00335041 -0.20375 0
-0.00247698 -0.213402 0
-0.00115719 -0.223784 0
0.000272045 -0.234046 0
0.00157781 -0.243208 0
0.00265045 -0.250954 0
0.00347085 -0.257627 0
0.00407126 -0.26372 0
0.00450208 -0.269439 0
0.00479837 -0.274653 0
0.00496134 -0.27909 0
0.00496521 -0.282551 0
0.00478232 -0.285013 0
0.00440853 -0.2866 0
0.00387463 -0.28752 0
0.00324052 -0.287986 0
0.00257811 -0.288177 0
0.00195267 -0.288219 0
0.00141004 -0.288195 0
0.000972565 -0.288149 0
0.00064204 -0.288104 0
0.000406489 -0.288067 0
0.000247309 -0.288041 0
0.000144861 -0.288024 0
8.1836e-05 -0.288014 0
4.46615e-05 -0.288007 0
2.35817e-05 -0.288004 0
1.20637e-05 -0.288002 0
5.98711e-06 -0.288001 0
2.88609e-06 -0.288 0
1.35284e-06 -0.288 0
6.17286e-07 -0.288 0
2.74444e-07 -0.288 0
1.19e-07 -0.288 0
5.03661e-08 -0.288 0
2.08247e-08 -0.288 0
8.41765e-09 -0.288 0
3.32877e-09 -0.288 0
1.28878e-09 -0.288 0
4.88871e-10 -0.288 0
1.81732e-10 -0.288 0
6.62655e-11 -0.288 0
2.37028e-11 -0.288 0
8.38052e-12 -0.288 0
2.90476e-12 -0.288 0
1.01135e-12 -0.288 0
3.06253e-13 -0.288 0
3.97074e-14 -0.288 0
2.72134e-15 -0.288 0
-3.43447e-16 -0.288 0
1.41634e-15 -0.288 0
2.00692e-15 -0.288 0
-1.53717e-15 -0.288 0
-4.64503e-16 -0.288 0
7.96509e-16 -0.288 0
-8.07007e-16 -0.288 0
-4.0923e-16 -0.288 0
-0.00133617 -0.00475083 0
-0.000971225 -0.00392078 0
-0.00136548 -0.00949368 0
-0.00116623 -0.00954669 0
-0.000639719 -0.0138904 0
3.81368e-05 -0.0124157 0
-0.000612727 -0.0113935 0
3.0327e-05 -0.0222015 0
0.000859171 -0.0160323 0
0.00206945 -0.0233598 0
0.00341971 -0.0120712 0
0.00387874 -0.0108328 0
0.00397159 -0.024853 0
0.00629523 -0.0196836 0
0.00328988 -0.0241537 0
0.00252349 -0.0306973 0
0.00505855 -0.0304064 0
0.00368919 -0.032817 0
0.00130065 -0.04233 0
0.00155972 -0.0524845 0
0.00341639 -0.0616187 0
0.00178665 -0.0700043 0
0.000364344 -0.076308 0
0.0004916 -0.0779476 0
0.00110266 -0.0822277 0
0.00144788 -0.0914145 0
0.000470817 -0.100643 0
0.000178965 -0.110037 0
0.0017817 -0.1191 0
0.00280269 -0.127333 0
0.00258588 -0.136069 0
0.00281863 -0.142993 0
0.00322934 -0.148012 0
0.00310332 -0.151668 0
0.00357435 -0.153606 0
0.00513758 -0.15563 0
0.00614668 -0.158734 0
0.00517407 -0.162188 0
0.00278568 -0.165676 0
0.000356059 -0.170403 0
-0.00147155 -0.177418 0
-0.00272732 -0.186189 0
-0.00341314 -0.195504 0
-0.00336495 -0.20491 0
-0.00254047 -0.214652 0
-0.00117038 -0.224706 0
0.000359733 -0.234446 0
0.00172136 -0.243199 0
0.00276549 -0.250797 0
0.00350737 -0.257548 0
0.00403806 -0.263802 0
0.00443999 -0.269638 0
0.00474416 -0.274865 0
0.00493099 -0.27922 0
0.00495713 -0.282549 0
0.00478792 -0.284879 0
0.00442016 -0.28637 0
0.0038882 -0.287243 0
0.00325463 -0.287708 0
0.00259238 -0.287929 0
0.00196668 -0.288018 0
0.00142313 -0.288043 0
0.000984034 -0.288041 0
0.000651422 -0.288031 0
0.000413666 -0.288021 0
0.000252463 -0.288013 0
0.000148351 -0.288008 0
8.40764e-05 -0.288004 0
4.60297e-05 -0.288002 0
2.43797e-05 -0.288001 0
1.25097e-05 -0.288001 0
6.22665e-06 -0.288 0
3.01004e-06 -0.288 0
1.41477e-06 -0.288 0
6.47223e-07 -0.288 0
2.8847e-07 -0.288 0
1.25379e-07 -0.288 0
5.31862e-08 -0.288 0
2.20382e-08 -0.288 0
8.92666e-09 -0.288 0
3.53694e-09 -0.288 0
1.37198e-09 -0.288 0
5.21331e-10 -0.288 0
1.9405e-10 -0.288 0
7.08079e-11 -0.288 0
2.53811e-11 -0.288 0
8.92614e-12 -0.288 0
3.15146e-12 -0.288 0
1.08063e-12 -0.288 0
3.35049e-13 -0.288 0
4.66449e-14 -0.288 0
3.7103e-15 -0.288 0
-4.94991e-16 -0.288 0
-2.38585e-17 -0.288 0
-5.20642e-16 -0.288 0
-5.41298e-16 -0.288 0
1.34082e-15 -0.288 0
-7.41527e-17 -0.288 0
5.72344e-18 -0.288 0
1.09148e-15 -0.288 0
-0.00187752 -0.00961642 0
-0.00122049 -0.0102758 0
-0.00110384 -0.0185857 0
-0.00238075 -0.018929 0
-0.00170704 -0.0206453 0
-0.000781513 -0.0223826 0
0.00133179 -0.0205133 0
0.00172545 -0.0263206 0
0.000779699 -0.0198582 0
0.0034787 -0.0289894 0
0.00214145 -0.0254823 0
0.00323862 -0.0218795 0
0.00598945 -0.032747 0
0.00304269 -0.0254435 0
0.00266051 -0.0260826 0
0.00400205 -0.0303901 0
0.00698658 -0.0317008 0
0.00616304 -0.0344464 0
0.00220193 -0.0507637 0
0.00225608 -0.0529144 0
0.00386619 -0.0536297 0
0.000768521 -0.0647987 0
-0.00175772 -0.0754623 0
-0.000840477 -0.0776119 0
0.00205761 -0.0834768 0
0.00310533 -0.0949257 0
0.00092861 -0.103678 0
9.75614e-05 -0.110987 0
0.00232991 -0.118521 0
0.00385844 -0.126723 0
0.00338322 -0.135612 0
0.0028621 -0.143017 0
0.0027191 -0.148252 0
0.00253484 -0.151724 0
0.00313432 -0.153749 0
0.00482112 -0.155443 0
0.00603396 -0.157685 0
0.0052709 -0.160543 0
0.00290537 -0.164258 0
0.000355311 -0.169697 0
-0.00154991 -0.177342 0
-0.00281427 -0.186552 0
-0.00353795 -0.19628 0
-0.00356364 -0.206057 0
-0.00275131 -0.215914 0
-0.00127826 -0.225703 0
0.000410186 -0.234939 0
0.00188152 -0.243235 0
0.00293348 -0.250627 0
0.00360643 -0.257431 0
0.00405349 -0.263866 0
0.00440291 -0.26986 0
0.00469603 -0.275133 0
0.0048993 -0.279416 0
0.00494999 -0.282605 0
0.00480028 -0.284785 0
0.00444236 -0.286163 0
0.00391183 -0.286978 0
0.00327473 -0.287434 0
0.00260721 -0.287682 0
0.00197653 -0.287816 0
0.00142913 -0.287891 0
0.000987429 -0.287934 0
0.000653224 -0.28796 0
0.000414568 -0.287976 0
0.000252889 -0.287986 0
0.000148542 -0.287992 0
8.41573e-05 -0.287995 0
4.60619e-05 -0.287998 0
2.43917e-05 -0.287999 0
1.25138e-05 -0.287999 0
6.22786e-06 -0.288 0
3.01031e-06 -0.288 0
1.41479e-06 -0.288 0
6.47188e-07 -0.288 0
2.8844e-07 -0.288 0
1.25361e-07 -0.288 0
5.31773e-08 -0.288 0
2.2034e-08 -0.288 0
8.92499e-09 -0.288 0
3.53617e-09 -0.288 0
1.37166e-09 -0.288 0
5.21203e-10 -0.288 0
1.94002e-10 -0.288 0
7.07738e-11 -0.288 0
2.53757e-11 -0.288 0
8.92514e-12 -0.288 0
3.1509e-12 -0.288 0
1.08002e-12 -0.288 0
3.34777e-13 -0.288 0
4.7608e-14 -0.288 0
4.05046e-15 -0.288 0
1.61259e-16 -0.288 0
-3.69371e-16 -0.288 0
-8.81191e-16 -0.288 0
7.58999e-16 -0.288 0
4.6014e-17 -0.288 0
-3.77893e-16 -0.288 0
1.24779e-16 -0.288 0
-8.54287e-16 -0.288 0
-0.00114327 -0.00336818 0
-0.000404631 -0.00126596 0
-0.000992592 -0.00704088 0
-0.00240343 -0.00388776 0
0.000522686 -0.0121136 0
0.00116306 -0.0126588 0
0.00167493 -0.0115955 0
-0.000589827 -0.0136301 0
-0.000618239 -0.00720416 0
0.00255079 -0.0151714 0
0.00334088 -0.0189244 0
-0.000406047 -0.0208049 0
0.0038142 -0.0220729 0
0.0034142 -0.0259584 0
0.00151759 -0.0240987 0
0.00266461 -0.035045 0
0.00549034 -0.0326137 0
0.00489881 -0.0452838 0
-0.00225491 -0.0484611 0
6.665e-05 -0.045067 0
0.00389532 -0.0512599 0
0.00205446 -0.0606974 0
-0.00173295 -0.073101 0
-0.00188861 -0.0804653 0
0.00342887 -0.0859612 0
0.00579767 -0.0965664 0
0.0017956 -0.105897 0
-0.000812144 -0.1126 0
0.00167065 -0.119589 0
0.00461125 -0.127276 0
0.00477804 -0.135065 0
0.00341498 -0.141697 0
0.0021426 -0.146933 0
0.00159199 -0.151276 0
0.00237306 -0.154254 0
0.00434859 -0.155872 0
0.00592381 -0.157114 0
0.00552979 -0.159092 0
0.003314 -0.16277 0
0.000652981 -0.168817 0