<?xml version='1.0' encoding='UTF-8'?>
<VTKFile byte_order='LittleEndian' version='0.1' type = 'UnstructuredGrid'>
<UnstructuredGrid>
<FieldData>
<DataArray type='Float64' Name='Time' NumberOfComponents='1' NumberOfTuples='1' format='ascii'>
2.481
</DataArray>
</FieldData>
<Piece NumberOfCells='808' NumberOfPoints='808'>
<Points>
<DataArray NumberOfComponents='3' type='Float64' Name='position' format='ascii'>
0 0 0
0 0.025 0
0 0.05 0
0 0.075 0
0 0.1 0
0 0.125 0
0 0.15 0
0 0.175 0
0.025 0 0
0.05 0 0
0.075 0 0
0.1 0 0
0.125 0 0
0.15 0 0
0.175 0 0
0.2 0 0
0.225 0 0
0.25 0 0
0.275 0 0
0.3 0 0
0.323491 -0.00594413 0
0.340772 -0.00809803 0
0.374345 -0.0456369 0
0.401646 -0.0684202 0
0.426061 -0.084362 0
0.451536 -0.102302 0
0.47859 -0.117509 0
0.502426 -0.131584 0
0.528123 -0.148183 0
0.553267 -0.158979 0
0.577132 -0.172989 0
0.602146 -0.187169 0
0.627661 -0.199961 0
0.653406 -0.212985 0
0.676068 -0.224866 0
0.702264 -0.237288 0
0.727293 -0.24913 0
0.750106 -0.261776 0
0.777833 -0.274812 0
0.802739 -0.285968 0
0.825621 -0.297054 0
0.852188 -0.308955 0
0.877511 -0.319893 0
0.901165 -0.330358 0
0.926236 -0.341336 0
0.951917 -0.351775 0
0.977343 -0.361737 0
1.00209 -0.371965 0
1.02651 -0.381613 0
1.05194 -0.390609 0
1.07758 -0.400107 0
1.102 -0.409918 0
1.12628 -0.418869 0
1.15152 -0.427347 0
1.17684 -0.43614 0
1.20146 -0.444848 0
1.22588 -0.453235 0
1.2507 -0.461724 0
1.27594 -0.470066 0
1.30118 -0.477718 0
1.32598 -0.484953 0
1.35035 -0.492281 0
1.37483 -0.499541 0
1.39991 -0.506323 0
1.42547 -0.51269 0
1.45095 -0.519024 0
1.47599 -0.525406 0
1.50073 -0.531551 0
1.52556 -0.537221 0
1.55063 -0.542451 0
1.57584 -0.547396 0
1.60102 -0.552133 0
1.62615 -0.556681 0
1.65126 -0.561093 0
1.67638 -0.565466 0
1.70145 -0.56989 0
1.72641 -0.574336 0
1.75123 -0.578693 0
1.77596 -0.582866 0
1.80069 -0.586817 0
1.82548 -0.590542 0
1.85039 -0.594026 0
1.87542 -0.597236 0
1.90055 -0.60014 0
1.92572 -0.602728 0
1.9509 -0.605015 0
1.97607 -0.607026 0
2.00122 -0.608776 0
2.02633 -0.610274 0
2.05142 -0.611519 0
2.07648 -0.61252 0
2.10151 -0.613292 0
2.12651 -0.613864 0
2.15147 -0.614271 0
2.1764 -0.61455 0
2.2013 -0.614733 0
2.22617 -0.614847 0
2.25103 -0.614911 0
2.27588 -0.614941 0
2.30074 -0.614948 0
2.3256 -0.61494 0
2.35047 -0.614923 0
2.37537 -0.614901 0
2.40028 -0.614879 0
2.42521 -0.614858 0
2.45016 -0.614841 0
2.47512 -0.614827 0
2.50011 -0.614819 0
0.0253106 0.0232397 0
0.0497269 0.0247013 0
0.0737824 0.023332 0
0.0990202 0.0231198 0
0.124055 0.0203411 0
0.148949 0.0207613 0
0.173777 0.0183324 0
0.199487 0.019618 0
0.222948 0.0162649 0
0.250478 0.0184378 0
0.276643 0.0139971 0
0.293126 0.0140839 0
0.328024 0.00296934 0
0.350838 -0.00889432 0
0.373957 -0.0274125 0
0.400978 -0.0474807 0
0.427621 -0.0650749 0
0.45292 -0.0807847 0
0.477411 -0.0931525 0
0.501751 -0.107467 0
0.527884 -0.122988 0
0.552898 -0.13604 0
0.577757 -0.149328 0
0.603597 -0.162124 0
0.627455 -0.173662 0
0.650913 -0.187011 0
0.677265 -0.202385 0
0.703883 -0.213961 0
0.726604 -0.224819 0
0.750731 -0.238079 0
0.777637 -0.250043 0
0.801879 -0.260676 0
0.825753 -0.272532 0
0.851752 -0.284427 0
0.877118 -0.295342 0
0.901797 -0.30644 0
0.926787 -0.31724 0
0.951744 -0.327083 0
0.976853 -0.33679 0
1.00181 -0.347052 0
1.02663 -0.357054 0
1.05209 -0.366357 0
1.07751 -0.375677 0
1.10196 -0.385143 0
1.12633 -0.394185 0
1.15147 -0.402862 0
1.17669 -0.411455 0
1.20137 -0.419957 0
1.22594 -0.428467 0
1.25082 -0.437046 0
1.27592 -0.445297 0
1.30098 -0.452898 0
1.32581 -0.460168 0
1.35043 -0.467491 0
1.37507 -0.474728 0
1.40006 -0.481556 0
1.4254 -0.488006 0
1.45077 -0.494337 0
1.47588 -0.500606 0
1.50076 -0.506651 0
1.52564 -0.512319 0
1.55068 -0.517595 0
1.57584 -0.522558 0
1.601 -0.527276 0
1.62613 -0.531803 0
1.65126 -0.536223 0
1.67637 -0.540604 0
1.70142 -0.545003 0
1.72636 -0.549397 0
1.7512 -0.553704 0
1.77596 -0.557853 0
1.8007 -0.561809 0
1.82551 -0.565554 0
1.85043 -0.569061 0
1.87545 -0.572287 0
1.90056 -0.5752 0
1.92572 -0.57779 0
1.9509 -0.580072 0
1.97607 -0.582072 0
2.00121 -0.583809 0
2.02632 -0.585293 0
2.05141 -0.586525 0
2.07647 -0.587514 0
2.1015 -0.588276 0
2.1265 -0.588839 0
2.15146 -0.589238 0
2.17639 -0.589509 0
2.20129 -0.589686 0
2.22617 -0.589795 0
2.25103 -0.589857 0
2.27589 -0.589887 0
2.30074 -0.589896 0
2.3256 -0.589893 0
2.35048 -0.589882 0
2.37537 -0.589868 0
2.40028 -0.589853 0
2.42521 -0.589838 0
2.45016 -0.589826 0
2.47513 -0.589818 0
2.50011 -0.589813 0
0.0238712 0.0500895 0
0.0500772 0.0502012 0
0.0752755 0.0471677 0
0.0994347 0.0498361 0
0.124302 0.0488763 0
0.148615 0.0508495 0
0.173594 0.0478537 0
0.199714 0.0494532 0
0.221776 0.0434019 0
0.247655 0.0433642 0
0.277143 0.0329005 0
0.300315 0.0331978 0
0.326116 0.0245224 0
0.354816 0.00356612 0
0.37815 -0.00661146 0
0.401638 -0.0225152 0
0.427877 -0.0415308 0
0.45302 -0.0532641 0
0.476804 -0.0689435 0
0.502927 -0.0838617 0
0.52838 -0.0984906 0
0.552086 -0.111296 0
0.576972 -0.124567 0
0.602797 -0.139149 0
0.628479 -0.151321 0
0.652556 -0.1626 0
0.676686 -0.175653 0
0.702005 -0.188825 0
0.726922 -0.201227 0
0.752241 -0.213778 0
0.777328 -0.224617 0
0.801204 -0.235771 0
0.826136 -0.248528 0
0.851879 -0.259807 0
0.876849 -0.270581 0
0.901793 -0.281947 0
0.926878 -0.292476 0
0.95173 -0.302048 0
0.976736 -0.311906 0
1.00172 -0.322136 0
1.02663 -0.332222 0
1.05209 -0.341855 0
1.07746 -0.350989 0
1.10195 -0.360157 0
1.12637 -0.3694 0
1.15146 -0.378212 0
1.1766 -0.386566 0
1.20131 -0.394932 0
1.22596 -0.403487 0
1.25085 -0.412072 0
1.27588 -0.42032 0
1.30085 -0.428 0
1.32571 -0.435324 0
1.35048 -0.442603 0
1.37526 -0.449774 0
1.4002 -0.45664 0
1.42538 -0.463181 0
1.45065 -0.469546 0
1.4758 -0.475764 0
1.50078 -0.481717 0
1.52572 -0.487339 0
1.55074 -0.492646 0
1.57585 -0.497645 0
1.60099 -0.502354 0
1.62612 -0.506871 0
1.65125 -0.511296 0
1.67635 -0.51568 0
1.70139 -0.52006 0
1.72633 -0.524417 0
1.75117 -0.52869 0
1.77595 -0.532823 0
1.80072 -0.536785 0
1.82554 -0.540548 0
1.85045 -0.544075 0
1.87547 -0.547319 0
1.90057 -0.550244 0
1.92573 -0.552839 0
1.9509 -0.555121 0
1.97606 -0.557114 0
2.0012 -0.558841 0
2.02632 -0.560313 0
2.05141 -0.561534 0
2.07647 -0.562512 0
2.1015 -0.563265 0
2.1265 -0.563819 0
2.15146 -0.564209 0
2.17639 -0.564472 0
2.20129 -0.564642 0
2.22617 -0.564746 0
2.25103 -0.564806 0
2.27589 -0.564836 0
2.30074 -0.564849 0
2.3256 -0.56485 0
2.35048 -0.564845 0
2.37537 -0.564837 0
2.40028 -0.564828 0
2.42522 -0.56482 0
2.45016 -0.564813 0
2.47513 -0.564808 0
2.50011 -0.564805 0
0.0244958 0.0738543 0
0.049961 0.0720543 0
0.073502 0.0703344 0
0.0979948 0.0705853 0
0.123466 0.0684049 0
0.148349 0.0663503 0
0.173554 0.0645755 0
0.199842 0.0645035 0
0.224385 0.0573754 0
0.248431 0.0614594 0
0.274521 0.050398 0
0.301468 0.0457419 0
0.325367 0.037226 0
0.353291 0.0257774 0
0.378303 0.0144712 0
0.402894 -0.00375608 0
0.427149 -0.0157198 0
0.453423 -0.030068 0
0.477003 -0.046222 0
0.50338 -0.0618771 0
0.528648 -0.0717149 0
0.552165 -0.0878154 0
0.578411 -0.101574 0
0.603056 -0.111678 0
0.626818 -0.126866 0
0.652564 -0.139748 0
0.677416 -0.1511 0
0.701409 -0.163704 0
0.726642 -0.175994 0
0.75243 -0.188443 0
0.777186 -0.200069 0
0.801486 -0.211942 0
0.826668 -0.223976 0
0.851966 -0.235036 0
0.87672 -0.245952 0
0.901572 -0.256817 0
0.926597 -0.267304 0
0.951725 -0.277395 0
0.976912 -0.287209 0
1.00181 -0.297287 0
1.02663 -0.30741 0
1.05192 -0.317041 0
1.07725 -0.326118 0
1.10196 -0.335276 0
1.12652 -0.344577 0
1.1515 -0.35342 0
1.17653 -0.3617 0
1.20125 -0.369938 0
1.22594 -0.378436 0
1.25084 -0.387006 0
1.27583 -0.395293 0
1.30077 -0.40308 0
1.32564 -0.410486 0
1.3505 -0.417731 0
1.37538 -0.424828 0
1.40032 -0.431691 0
1.4254 -0.438323 0
1.45057 -0.444752 0
1.47573 -0.450933 0
1.50078 -0.456806 0
1.52577 -0.462383 0
1.55078 -0.467687 0
1.57585 -0.4727 0
1.60098 -0.47741 0
1.62612 -0.481924 0
1.65125 -0.486352 0
1.67634 -0.490733 0
1.70136 -0.495096 0
1.7263 -0.499426 0
1.75115 -0.503675 0
1.77594 -0.507799 0
1.80072 -0.511766 0
1.82555 -0.515545 0
1.85047 -0.519092 0
1.87548 -0.522355 0
1.90058 -0.525294 0
1.92573 -0.527897 0
1.9509 -0.530179 0
1.97606 -0.532167 0
2.0012 -0.533884 0
2.02632 -0.535344 0
2.05141 -0.536553 0
2.07647 -0.53752 0
2.1015 -0.538262 0
2.1265 -0.538805 0
2.15147 -0.539185 0
2.17639 -0.539439 0
2.2013 -0.539601 0
2.22617 -0.539699 0
2.25103 -0.539755 0
2.27589 -0.539786 0
2.30074 -0.539801 0
2.32561 -0.539806 0
2.35048 -0.539807 0
2.37538 -0.539806 0
2.40029 -0.539804 0
2.42522 -0.539801 0
2.45017 -0.539799 0
2.47513 -0.539797 0
2.50011 -0.539796 0
0.0252773 0.0982487 0
0.0491324 0.0977945 0
0.0734048 0.0970606 0
0.0995669 0.0959855 0
0.124385 0.09235 0
0.14934 0.0921083 0
0.17478 0.0880676 0
0.19876 0.087327 0
0.224213 0.0819447 0
0.248456 0.0817631 0
0.275052 0.077411 0
0.303114 0.0675677 0
0.325305 0.0590817 0
0.353077 0.0466048 0
0.378543 0.0353865 0
0.403541 0.0182708 0
0.428441 0.00810713 0
0.453925 -0.0096223 0
0.47735 -0.0229978 0
0.502986 -0.035753 0
0.528352 -0.0480215 0
0.552088 -0.0613059 0
0.577714 -0.0753651 0
0.602988 -0.0868439 0
0.626678 -0.10173 0
0.652168 -0.115834 0
0.678366 -0.127905 0
0.702469 -0.138898 0
0.726313 -0.150369 0
0.751552 -0.163569 0
0.776945 -0.176019 0
0.801866 -0.187549 0
0.82692 -0.199142 0
0.851953 -0.210267 0
0.876722 -0.220893 0
0.901539 -0.231706 0
0.926507 -0.242507 0
0.951671 -0.252866 0
0.976953 -0.262708 0
1.00192 -0.272479 0
1.02663 -0.282431 0
1.0517 -0.292135 0
1.07701 -0.301305 0
1.10197 -0.310365 0
1.12671 -0.31969 0
1.15158 -0.328614 0
1.17646 -0.336854 0
1.20117 -0.345022 0
1.22591 -0.353435 0
1.25081 -0.361931 0
1.27579 -0.370255 0
1.3007 -0.378169 0
1.32558 -0.385646 0
1.35049 -0.39286 0
1.37544 -0.39991 0
1.40042 -0.406787 0
1.42545 -0.413472 0
1.45055 -0.41994 0
1.47569 -0.42611 0
1.50077 -0.431933 0
1.52579 -0.437453 0
1.55079 -0.442731 0
1.57585 -0.447747 0
1.60097 -0.452466 0
1.62612 -0.456984 0
1.65125 -0.461408 0
1.67634 -0.46578 0
1.70135 -0.470128 0
1.72628 -0.47444 0
1.75113 -0.478673 0
1.77593 -0.482789 0
1.80072 -0.48676 0
1.82555 -0.490554 0
1.85047 -0.494122 0
1.87548 -0.497405 0
1.90058 -0.500358 0
1.92573 -0.502967 0
1.9509 -0.505249 0
1.97606 -0.507231 0
2.0012 -0.508939 0
2.02632 -0.510387 0
2.05141 -0.511584 0
2.07648 -0.512538 0
2.10151 -0.513267 0
2.12651 -0.513798 0
2.15147 -0.514166 0
2.1764 -0.514409 0
2.2013 -0.514561 0
2.22618 -0.514653 0
2.25104 -0.514706 0
2.27589 -0.514735 0
2.30074 -0.514753 0
2.32561 -0.514763 0
2.35048 -0.51477 0
2.37538 -0.514775 0
2.40029 -0.514779 0
2.42522 -0.514782 0
2.45017 -0.514785 0
2.47513 -0.514787 0
2.50011 -0.514788 0
0.0245273 0.122903 0
0.0487541 0.121829 0
0.0746635 0.119155 0
0.0991087 0.119195 0
0.122821 0.116366 0
0.148444 0.117731 0
0.174469 0.112436 0
0.199329 0.112986 0
0.227092 0.109008 0
0.249995 0.101439 0
0.275185 0.096883 0
0.302332 0.0892223 0
0.327338 0.081096 0
0.35359 0.068809 0
0.378883 0.0569915 0
0.403439 0.0420925 0
0.428327 0.0310197 0
0.4534 0.016176 0
0.477757 0.00435018 0
0.503551 -0.00899613 0
0.527712 -0.0239108 0
0.552173 -0.0354081 0
0.577516 -0.0533079 0
0.602852 -0.0643524 0
0.627638 -0.0753369 0
0.652205 -0.0902171 0
0.677806 -0.102402 0
0.702377 -0.114021 0
0.72655 -0.127266 0
0.751858 -0.139789 0
0.777005 -0.150765 0
0.801596 -0.162107 0
0.82653 -0.174189 0
0.851798 -0.18563 0
0.876929 -0.196139 0
0.901809 -0.206684 0
0.92659 -0.217933 0
0.951571 -0.228535 0
0.976793 -0.237927 0
1.00187 -0.247589 0
1.02667 -0.257564 0
1.05161 -0.267322 0
1.07686 -0.276501 0
1.10201 -0.285406 0
1.12684 -0.294682 0
1.1516 -0.303747 0
1.1764 -0.312111 0
1.20113 -0.320197 0
1.22589 -0.328431 0
1.25079 -0.336873 0
1.27573 -0.345241 0
1.30062 -0.353221 0
1.32551 -0.360772 0
1.35048 -0.368014 0
1.37548 -0.375043 0
1.40048 -0.381913 0
1.4255 -0.388624 0
1.45057 -0.395109 0
1.47568 -0.401277 0
1.50076 -0.407072 0
1.52578 -0.412536 0
1.55078 -0.417776 0
1.57583 -0.422796 0
1.60096 -0.42753 0
1.62612 -0.432053 0
1.65126 -0.436467 0
1.67634 -0.440825 0
1.70135 -0.44516 0
1.72627 -0.449458 0
1.75112 -0.453677 0
1.77592 -0.457784 0
1.80071 -0.461759 0
1.82554 -0.46557 0
1.85045 -0.469163 0
1.87547 -0.472469 0
1.90058 -0.475437 0
1.92573 -0.478052 0
1.9509 -0.480331 0
1.97606 -0.482305 0
2.0012 -0.484003 0
2.02632 -0.48544 0
2.05142 -0.486625 0
2.07648 -0.487566 0
2.10151 -0.488282 0
2.12651 -0.488798 0
2.15148 -0.489153 0
2.17641 -0.489382 0
2.2013 -0.489524 0
2.22618 -0.489608 0
2.25104 -0.489657 0
2.27589 -0.489686 0
2.30074 -0.489705 0
2.32561 -0.48972 0
2.35048 -0.489733 0
2.37537 -0.489744 0
2.40029 -0.489755 0
2.42522 -0.489764 0
2.45016 -0.489771 0
2.47513 -0.489776 0
2.50011 -0.489779 0
0.0241291 0.149865 0
0.0484939 0.14937 0
0.0739581 0.148191 0
0.0989926 0.147534 0
0.124161 0.146075 0
0.148713 0.142727 0
0.172984 0.14261 0
0.20173 0.136976 0
0.22564 0.131658 0
0.250795 0.128133 0
0.276132 0.119666 0
0.300156 0.113665 0
0.328295 0.101586 0
0.352355 0.0931545 0
0.378652 0.0773381 0
0.40263 0.0680113 0
0.427855 0.0516362 0
0.452443 0.0422952 0
0.47811 0.0263812 0
0.502728 0.0135813 0
0.528267 -0.00150036 0
0.553441 -0.0149414 0
0.577709 -0.0243633 0
0.602592 -0.038485 0
0.627774 -0.0530785 0
0.652075 -0.0647863 0
0.67681 -0.0769275 0
0.702089 -0.0899002 0
0.727089 -0.102898 0
0.752051 -0.115425 0
0.776998 -0.125971 0
0.801713 -0.136842 0
0.826415 -0.149276 0
0.851505 -0.161071 0
0.876887 -0.171582 0
0.902012 -0.182207 0
0.926659 -0.193401 0
0.951423 -0.203843 0
0.976624 -0.213106 0
1.00179 -0.222751 0
1.02668 -0.233034 0
1.05164 -0.242653 0
1.07686 -0.251605 0
1.10202 -0.260506 0
1.12686 -0.269711 0
1.15158 -0.278852 0
1.17635 -0.28743 0
1.20111 -0.295469 0
1.22591 -0.30351 0
1.25078 -0.311874 0
1.27565 -0.320274 0
1.30052 -0.328301 0
1.32546 -0.335908 0
1.35048 -0.343213 0
1.3755 -0.350253 0
1.40051 -0.357077 0
1.42553 -0.363772 0
1.45061 -0.370297 0
1.4757 -0.376466 0
1.50075 -0.382205 0
1.52574 -0.387628 0
1.55074 -0.392853 0
1.5758 -0.397866 0
1.60096 -0.402619 0
1.62614 -0.407156 0
1.65128 -0.411548 0
1.67635 -0.415885 0
1.70135 -0.420209 0
1.72628 -0.424495 0
1.75113 -0.428696 0
1.77592 -0.43279 0
1.80069 -0.436768 0
1.82551 -0.4406 0
1.85043 -0.444223 0
1.87546 -0.447556 0
1.90057 -0.45054 0
1.92573 -0.453156 0
1.9509 -0.455428 0
1.97607 -0.457392 0
2.00121 -0.459078 0
2.02632 -0.460504 0
2.05142 -0.461677 0
2.07649 -0.462605 0
2.10152 -0.463305 0
2.12652 -0.463806 0
2.15149 -0.464145 0
2.17641 -0.46436 0
2.20131 -0.46449 0
2.22618 -0.464565 0
2.25104 -0.464609 0
2.27589 -0.464637 0
2.30074 -0.464658 0
2.3256 -0.464677 0
2.35048 -0.464695 0
2.37537 -0.464713 0
2.40028 -0.46473 0
2.42521 -0.464745 0
2.45016 -0.464757 0
2.47513 -0.464766 0
2.50011 -0.464771 0
0.025052 0.172596 0
0.0500382 0.170585 0
0.0743115 0.170234 0
0.099731 0.167446 0
0.123545 0.167452 0
0.15033 0.164672 0
0.173981 0.162502 0
0.199705 0.159579 0
0.224715 0.15574 0
0.250378 0.150125 0
0.277451 0.14376 0
0.301035 0.135151 0
0.327936 0.126151 0
0.352652 0.115349 0
0.376843 0.104176 0
0.404454 0.0920018 0
0.428072 0.0790022 0
0.453042 0.0639128 0
0.479013 0.0525942 0
0.502309 0.0375029 0
0.527168 0.024766 0
0.553093 0.0127087 0
0.577101 -0.00280244 0
0.602214 -0.0163001 0
0.627917 -0.0272794 0
0.652249 -0.0409697 0
0.67677 -0.0546589 0
0.702544 -0.0656755 0
0.727274 -0.0773947 0
0.751135 -0.089762 0
0.776556 -0.101405 0
0.802429 -0.113061 0
0.826914 -0.125251 0
0.851265 -0.136554 0
0.876678 -0.147073 0
0.901933 -0.158118 0
0.926473 -0.169089 0
0.951289 -0.178968 0
0.976591 -0.188467 0
1.00179 -0.19845 0
1.02668 -0.208651 0
1.05166 -0.218216 0
1.07692 -0.227008 0
1.10201 -0.23573 0
1.1268 -0.244909 0
1.15157 -0.254262 0
1.17632 -0.262922 0
1.20108 -0.270822 0
1.22592 -0.278778 0
1.25077 -0.287119 0
1.27557 -0.295469 0
1.30043 -0.303536 0
1.32543 -0.311268 0
1.35048 -0.318598 0
1.3755 -0.325553 0
1.40049 -0.332331 0
1.42553 -0.339059 0
1.45063 -0.345603 0
1.47573 -0.351739 0
1.50076 -0.357422 0
1.52571 -0.362795 0
1.55068 -0.368004 0
1.57576 -0.373037 0
1.60095 -0.377813 0
1.62615 -0.382332 0
1.6513 -0.386686 0
1.67637 -0.390996 0
1.70136 -0.395308 0
1.72629 -0.399579 0
1.75114 -0.403755 0
1.77592 -0.407827 0
1.80067 -0.411804 0
1.82548 -0.415661 0
1.85039 -0.419321 0
1.87543 -0.422684 0
1.90056 -0.425679 0
1.92573 -0.428291 0
1.95091 -0.430549 0
1.97607 -0.432496 0
2.00121 -0.434168 0
2.02633 -0.435581 0
2.05142 -0.436741 0
2.0765 -0.437654 0
2.10153 -0.438337 0
2.12654 -0.438819 0
2.1515 -0.439139 0
2.17642 -0.439337 0
2.20132 -0.439454 0
2.22619 -0.439519 0
2.25104 -0.439558 0
2.27589 -0.439584 0
2.30074 -0.439607 0
2.3256 -0.43963 0
2.35047 -0.439655 0
2.37537 -0.43968 0
2.40028 -0.439704 0
2.42521 -0.439725 0
2.45016 -0.439743 0
2.47512 -0.439757 0
2.50011 -0.439765 0
</DataArray>
</Points>
<PointData>
<DataArray NumberOfComponents='1' type='Int32' Name='Particle Type' format='ascii'>
0
0
0
0
0
0
0
0
0
0
0
0
0
0
0
0
0
0
0
0
0
0
1
1
1
1
1
1
1
1
1
1
1
1
1
1
1
1
1
1
1
1
1
1
1
1
1
1
1
1
1
1
1
1
1
1
1
1
1
1
1
1
1
1
1
1
1
1
1
1
1
1
1
1
1
1
1
1
1
1
1
1
1
1
1
1
1
1
1
1
1
1
1
1
1
1
1
1
1
1
1
1
1
1
1
1
1
1
1
1
1
1
1
1
1
1
1
1
1
1
1
1
1
1
1
1
1
1
1
1
1
1
1
1
1
1
1
1
1
1
1
1
1
1
1
1
1
1
1
1
1
1
1
1
1
1
1
1
1
1
1
1
1
1
1
1
1
1
1
1
1
1
1
1
1
1
1
1
1
1
1
1
1
1
1
1
1
1
1
1
1
1
1
1
1
1
1
1
1
1
1
1
1
1
1
1
1
1
1
1
1
1
1
1
1
1
1
1
1
1
1
1
1
1
1
1
1
1
1
1
1
1
1
1
1
1
1
1
1
1
1
1
1
1
1
1
1
1
1
1
1
1
1
1
1
1
1
1
1
1
1
1
1
1
1
1
1
1
1
1
1
1
1
1
1
1
1
1
1
1
1
1
1
1
1
1
1
1
1
1
1
1
1
1
1
1
1
1
1
1
1
1
1
1
1
1
1
1
1
1
1
1
1
1
1
1
1
1
1
1
1
1
1
1
1
1
1
1
1
1
1
1
1
1
1
1
1
1
1
1
1
1
1
1
1
1
1
1
1
1
1
1
1
1
1
1
1
1
1
1
1
1
1
1
1
1
1
1
1
1
1
1
1
1
1
1
1
1
1
1
1
1
1
1
1
1
1
1
1
1
1
1
1
1
1
1
1
1
1
1
1
1
1
1
1
1
1
1
1
1
1
1
1
1
1
1
1
1
1
1
1
1
1
1
1
1
1
1
1
1
1
1
1
1
1
1
1
1
1
1
1
1
1
1
1
1
1
1
1
1
1
1
1
1
1
1
1
1
1
1
1
1
1
1
1
1
1
1
1
1
1
1
1
1
1
1
1
1
1
1
1
1
1
1
1
1
1
1
1
1
1
1
1
1
1
1
1
1
1
1
1
1
1
1
1
1
1
1
1
1
1
1
1
1
1
1
1
1
1
1
1
1
1
1
1
1
1
1
1
1
1
1
1
1
1
1
1
1
1
1
1
1
1
1
1
1
1
1
1
1
1
1
1
1
1
1
1
1
1
1
1
1
1
1
1
1
1
1
1
1
1
1
1
1
1
1
1
1
1
1
1
1
1
1
1
1
1
1
1
1
1
1
1
1
1
1
1
1
1
1
1
1
1
1
1
1
1
1
1
1
1
1
1
1
1
1
1
1
1
1
1
1
1
1
1
1
1
1
1
1
1
1
1
1
1
1
1
1
1
1
1
1
1
1
1
1
1
1
1
1
1
1
1
1
1
1
1
1
1
1
1
1
1
1
1
1
1
1
1
1
1
1
1
1
1
1
1
1
1
1
1
1
1
1
1
1
1
1
1
1
1
1
1
1
1
1
1
1
1
1
1
1
1
1
1
1
1
1
1
1
1
1
1
1
1
1
1
1
1
1
1
1
1
1
1
1
1
1
1
1
1
1
1
1
1
1
1
1
1
1
1
1
1
1
1
1
1
1
1
1
1
1
1
1
1
1
1
1
1
1
1
1
1
1
1
1
1
1
1
1
1
1
1
1
1
1
1
1
1
1
1
1
1
1
1
1
1
1
1
1
1
1
1
1
1
1
1
1
1
1
1
1
1
1
1
1
1
1
</DataArray>
<DataArray NumberOfComponents='3' type='Float64' Name='Velocity' format='ascii'>
0 0 0
0 0 0
0 0 0
0 0 0
0 0 0
0 0 0
0 0 0
0 0 0
0 0 0
0 0 0
0 0 0
0 0 0
0 0 0
0 0 0
0 0 0
0 0 0
0 0 0
0 0 0
0 0 0
0 0 0
-0.0107857 -0.0842871 0
-0.0273274 -0.0472169 0
-0.0456399 0.037775 0
0.0362015 -0.0922102 0
0.0425636 -0.0270066 0
-0.0533804 0.0281996 0
-0.0129266 -0.0839656 0
0.0219876 0.0108392 0
-0.0316573 -0.0857394 0
0.0381425 -0.133214 0
0.0129935 -0.0231814 0
-0.00867281 -0.0822825 0
-0.0464028 -0.085799 0
0.0310662 -0.127043 0
0.0350762 -0.130675 0
-0.0538727 -0.118021 0
0.0515966 -0.115278 0
-0.0247682 -0.0765738 0
-0.0772913 -0.112268 0
0.0527077 -0.154347 0
-0.00230598 -0.133178 0
-0.0485742 -0.138678 0
0.0261733 -0.170042 0
0.0182987 -0.159191 0
-0.0250421 -0.153018 0
-0.028341 -0.174857 0
-0.0111167 -0.178765 0
0.0120725 -0.185315 0
0.00019892 -0.2108 0
-0.026119 -0.211915 0
-0.00568698 -0.191965 0
0.0206213 -0.20164 0
0.00197333 -0.226194 0
-0.0164765 -0.225209 0
-0.00223264 -0.21937 0
0.0138673 -0.229423 0
0.00904108 -0.233471 0
-0.00609823 -0.232441 0
-0.013361 -0.248121 0
-0.00378613 -0.268124 0
0.0136306 -0.271577 0
0.0192271 -0.268166 0
0.00476398 -0.276897 0
-0.015734 -0.29261 0
-0.0221611 -0.300037 0
-0.0111888 -0.298118 0
0.00281276 -0.299873 0
0.00619464 -0.310857 0
-0.000359497 -0.325653 0
-0.00730441 -0.336857 0
-0.00889751 -0.344249 0
-0.00705453 -0.350328 0
-0.00572114 -0.355361 0
-0.00557579 -0.35851 0
-0.00468242 -0.35828 0
-0.00163267 -0.35702 0
0.00294084 -0.358169 0
0.00707684 -0.362716 0
0.00896017 -0.369282 0
0.00791378 -0.376311 0
0.00454975 -0.383503 0
0.000267504 -0.39145 0
-0.00350768 -0.400511 0
-0.00591246 -0.410277 0
-0.00680874 -0.419938 0
-0.00657136 -0.428941 0
-0.00573463 -0.43726 0
-0.00471457 -0.445211 0
-0.00370313 -0.45307 0
-0.00270942 -0.460843 0
-0.00166599 -0.468266 0
-0.000524557 -0.474975 0
0.000700956 -0.480676 0
0.00193956 -0.485252 0
0.00309169 -0.488754 0
0.00405969 -0.491342 0
0.00476958 -0.493211 0
0.00518199 -0.494539 0
0.00529435 -0.495464 0
0.0051369 -0.496084 0
0.00476467 -0.496469 0
0.00424727 -0.496673 0
0.00365841 -0.496741 0
0.00306685 -0.496714 0
0.00253011 -0.496628 0
0.0020916 -0.496518 0
0.00177919 -0.496415 0
0.00159979 -0.496349 0
0.00308994 -0.0192159 0
0.00640108 0.0769621 0
-0.00208778 0.0210299 0
-0.0253072 -0.0425861 0
-0.0437042 -0.015911 0
-0.00242831 -0.0519754 0
-0.00486423 -0.0903596 0
-0.0502775 -0.0822315 0
0.0197235 -0.116479 0
0.0910074 -0.131305 0
0.00556707 -0.156579 0
-0.134856 0.101431 0
0.081515 -0.0575495 0
-0.00277338 -0.00176771 0
0.0183049 0.00895402 0
-0.0826618 0.0258094 0
-0.0325411 -0.0519211 0
0.00228418 -0.115293 0
0.0326421 -0.170005 0
-0.0168614 -0.0378573 0
-0.0470523 -0.0810079 0
-0.00171935 -0.10606 0
-0.0314974 -0.116715 0
0.00505637 -0.140977 0
0.0643882 -0.120406 0
-0.00921235 0.00191001 0
-0.0951505 -0.0471919 0
0.0131966 -0.174809 0
0.0812394 -0.120374 0
-0.0371055 -0.0949364 0
-0.0318286 -0.157696 0
0.0438737 -0.152568 0
-0.00915715 -0.115338 0
-0.0394233 -0.136168 0
-0.00685414 -0.149218 0
-0.00304385 -0.147334 0
-0.00343564 -0.175251 0
-0.00359511 -0.19661 0
-0.00787885 -0.1848 0
-0.00111543 -0.17514 0
-0.0110036 -0.195035 0
-0.0241785 -0.207268 0
-0.001298 -0.20173 0
0.0202766 -0.207169 0
0.00359342 -0.221174 0
-0.0132029 -0.226079 0
-0.0022225 -0.228593 0
0.010034 -0.230549 0
0.00492532 -0.228547 0
-0.00464049 -0.23268 0
-0.00685908 -0.250907 0
-0.00120522 -0.267841 0
0.00755085 -0.270247 0
0.0110937 -0.268606 0
0.00383741 -0.276812 0
-0.00917082 -0.290469 0
-0.0158878 -0.298288 0
-0.0109484 -0.299948 0
-0.00142883 -0.303687 0
0.002608 -0.312586 0
-0.000659473 -0.324726 0
-0.00557724 -0.335806 0
-0.0074852 -0.344433 0
-0.00681305 -0.351303 0
-0.00596005 -0.355814 0
-0.00544358 -0.358232 0
-0.00408588 -0.3586 0
-0.00111243 -0.358367 0
0.00287633 -0.35992 0
0.00637503 -0.363942 0
0.00797713 -0.369533 0
0.00711465 -0.375786 0
0.00422363 -0.382696 0
0.000414455 -0.390747 0
-0.003091 -0.400068 0
-0.00546324 -0.410107 0
-0.00648205 -0.420014 0
-0.00641259 -0.429218 0
-0.00570634 -0.437678 0
-0.00474616 -0.445691 0
-0.00373618 -0.453546 0
-0.00271861 -0.461277 0
-0.00165476 -0.468653 0
-0.000509305 -0.475328 0
0.000704691 -0.481009 0
0.00192355 -0.485565 0
0.00305534 -0.489032 0
0.00400756 -0.491561 0
0.00470866 -0.493349 0
0.00511976 -0.494582 0
0.00523769 -0.495412 0
0.0050913 -0.495951 0
0.00473377 -0.496278 0
0.0042326 -0.49645 0
0.00365954 -0.496512 0
0.00308185 -0.4965 0
0.00255616 -0.496445 0
0.00212563 -0.496373 0
0.00181808 -0.496309 0
0.00163827 -0.496271 0
0.00873093 -0.0516357 0
0.0106488 -0.0415883 0
0.0102591 -0.114519 0
0.00511578 0.00376091 0
-0.0145534 -0.0899286 0
0.0290247 -0.0557313 0
-0.0114476 -0.0570881 0
-0.00707133 -0.0259922 0
-0.0586173 0.00946505 0
0.0524577 0.119129 0
-0.0305973 -0.0551077 0
0.0122192 -0.113421 0
0.0980504 0.067933 0
-0.201692 0.00905388 0
0.0982234 -0.197451 0
-0.00040238 0.0614134 0
-0.0298788 -0.0617388 0
0.0383192 -0.115419 0
0.00684173 0.00676258 0
-0.0438012 -0.032907 0
0.0256362 -0.0464342 0
0.025782 -0.106685 0
-0.0246927 -0.0289164 0
-0.0542009 -0.0715605 0
-0.00845583 -0.16633 0
0.0434184 -0.136767 0
0.00517494 -0.0722497 0
-0.0171518 -0.0863911 0
-0.0121814 -0.100843 0
-0.0173929 -0.137546 0
0.0232941 -0.175223 0
0.0229638 -0.110289 0
-0.0264973 -0.110282 0
-0.0213084 -0.157355 0
-0.00468014 -0.1439 0
-0.0105961 -0.149896 0
-0.0029065 -0.191393 0
0.000392005 -0.199582 0
-0.00582849 -0.17969 0
-0.00357408 -0.175128 0
-0.0133298 -0.183706 0
-0.0239141 -0.202649 0
-0.00111446 -0.212983 0
0.0196993 -0.208771 0
0.00457598 -0.213481 0
-0.0109259 -0.230649 0
-0.00169162 -0.2373 0
0.00796404 -0.23176 0
0.00312291 -0.227219 0
-0.00366008 -0.232549 0
-0.00387907 -0.248528 0
-0.000312994 -0.264783 0
0.00360052 -0.269733 0
0.00547787 -0.271146 0
0.00254147 -0.277383 0
-0.00478675 -0.288086 0
-0.0106904 -0.295772 0
-0.0100217 -0.299959 0
-0.00449724 -0.306053 0
-0.000474896 -0.315313 0
-0.00124591 -0.325162 0
-0.00431598 -0.334568 0
-0.006164 -0.34441 0
-0.0063663 -0.352019 0
-0.00603548 -0.356097 0
-0.00533528 -0.358099 0
-0.0036309 -0.358872 0
-0.000694523 -0.359314 0
0.00284857 -0.361089 0
0.00584232 -0.364703 0
0.00721442 -0.36961 0
0.00648218 -0.375328 0
0.00393839 -0.382021 0
0.000480001 -0.390108 0
-0.00281469 -0.399585 0
-0.00514451 -0.40982 0
-0.00623684 -0.419938 0
-0.00628203 -0.429347 0
-0.00567366 -0.437969 0
-0.00476788 -0.446079 0
-0.00377058 -0.453964 0
-0.00274197 -0.46168 0
-0.00166264 -0.469025 0
-0.000508231 -0.475672 0
0.000705971 -0.481335 0
0.00191895 -0.485871 0
0.00304256 -0.489304 0
0.00398721 -0.491776 0
0.00468305 -0.493484 0
0.00509207 -0.494625 0
0.00521131 -0.495364 0
0.00506939 -0.495825 0
0.00471881 -0.496095 0
0.00422607 -0.496237 0
0.00366182 -0.496294 0
0.0030923 -0.496296 0
0.00257342 -0.496268 0
0.00214775 -0.496228 0
0.00184232 -0.496193 0
0.00165994 -0.496172 0
0.00207662 0.0454656 0
-0.0349894 0.0380209 0
-0.00989968 0.0580331 0
0.0506835 0.156449 0
-0.00852998 0.0447897 0
-0.0212411 0.259828 0
0.0259967 0.0281778 0
-0.00318459 0.20119 0
-0.053034 0.105256 0
0.0895439 0.0107341 0
-0.0146907 0.171828 0
-0.0832914 -0.0151102 0
0.182091 0.0403121 0
-0.0176454 -0.167434 0
0.00418298 0.0912803 0
0.0499495 -0.018536 0
-0.0431742 -0.0936286 0
-0.0098747 0.0275952 0
-0.00484663 0.0570344 0
-0.0687942 -0.103112 0
0.0294417 -0.105621 0
-0.00942416 0.0412427 0
-0.0318124 -0.183369 0
0.048568 -0.0968208 0
0.00246161 -0.0335921 0
-0.0196152 -0.151786 0
0.0261761 -0.126641 0
0.0044311 -0.10618 0
-0.0402792 -0.106645 0
-0.0218188 -0.117021 0
0.0162362 -0.128852 0
0.00408869 -0.112365 0
-0.0181959 -0.136145 0
-0.00376194 -0.156868 0
0.00422037 -0.156795 0
-0.00428435 -0.167761 0
-0.00906032 -0.177532 0
-0.0126311 -0.187876 0
-0.00751915 -0.184842 0
0.00131058 -0.17604 0
-0.00714207 -0.183652 0
-0.018657 -0.204512 0
-0.00529262 -0.212893 0
0.0114388 -0.206816 0
0.00393889 -0.212712 0
-0.00606555 -0.232315 0
0.000447707 -0.241914 0
0.0070936 -0.23562 0
0.00250649 -0.228354 0
-0.00343177 -0.231516 0
-0.00321284 -0.245311 0
-0.000138637 -0.260443 0
0.00160948 -0.2689 0
0.00175993 -0.273222 0
0.000533573 -0.279243 0
-0.00275376 -0.286287 0
-0.00682926 -0.292514 0
-0.00836407 -0.299252 0
-0.00608159 -0.308252 0
-0.00282103 -0.317661 0
-0.00191045 -0.326207 0
-0.00338939 -0.334728 0
-0.00515332 -0.344471 0
-0.00605787 -0.352395 0
-0.0061095 -0.356294 0
-0.00523557 -0.358164 0
-0.00325843 -0.359194 0
-0.000351096 -0.359985 0
0.00285887 -0.361825 0
0.00548127 -0.365141 0
0.00668879 -0.369588 0
0.0060435 -0.374924 0
0.00372067 -0.381423 0
0.000478648 -0.389495 0
-0.00268093 -0.399077 0
-0.00496979 -0.409488 0
-0.00608912 -0.419814 0
-0.00619091 -0.42943 0
-0.00564016 -0.438224 0
-0.00477851 -0.446447 0
-0.00380472 -0.454383 0
-0.00277984 -0.462106 0
-0.00169228 -0.469438 0
-0.000525482 -0.47607 0
0.000699984 -0.481717 0
0.00192051 -0.48623 0
0.00304742 -0.48962 0
0.00399191 -0.492025 0
0.00468553 -0.493644 0
0.00509178 -0.494684 0
0.00520892 -0.495324 0
0.00506632 -0.495701 0
0.00471666 -0.495912 0
0.00422617 -0.496022 0
0.00366495 -0.496072 0
0.00309867 -0.496087 0
0.00258269 -0.496085 0
0.00215906 -0.496075 0
0.00185424 -0.496065 0
0.0016704 -0.496059 0
-0.0208661 0.0118763 0
-0.0318543 -0.00491647 0
0.0483391 -0.0318062 0
0.0256204 -0.0157572 0
-0.0538996 -0.0638666 0
-0.0260546 0.117113 0
0.0148749 -0.0342665 0
0.0150632 0.0708828 0
-0.0224502 0.0270623 0
0.00453818 -0.0682004 0
0.017003 0.0112061 0
-0.0716115 0.00720455 0
0.0160647 0.0786506 0
-0.0510025 -0.102172 0
-0.0318757 0.104144 0
0.0100009 -0.0743364 0
-0.0400486 0.0131148 0
0.0303746 0.0315201 0
0.0138859 -0.102751 0
-0.0347268 -0.126696 0
0.0172334 -0.132075 0
0.00887678 -0.0645701 0
-0.0354021 -0.112249 0
0.0190958 -0.0648389 0
0.00823383 0.00701854 0
-0.0594373 -0.0821098 0
-0.0159753 -0.146158 0
0.0442543 -0.175452 0
0.0147588 -0.10924 0
-0.023141 -0.07431 0
-0.0173947 -0.113904 0
-0.00986438 -0.135765 0
-0.0091574 -0.145779 0
0.00131374 -0.165203 0
0.00507195 -0.166076 0
-0.00178839 -0.158133 0
-0.00898287 -0.165132 0
-0.0153529 -0.179414 0
-0.0108192 -0.191084 0
0.00312591 -0.188332 0
0.00118272 -0.187954 0
-0.0127995 -0.200129 0
-0.0104837 -0.212624 0
0.0011717 -0.207857 0
0.00185263 -0.210108 0
-0.000503721 -0.232391 0
0.00407761 -0.244631 0
0.00683447 -0.238044 0
0.00163281 -0.231282 0
-0.00349323 -0.232258 0
-0.00270066 -0.241704 0
5.36369e-06 -0.256356 0
0.000374394 -0.268285 0
-0.000801547 -0.274781 0
-0.00167508 -0.279524 0
-0.00263397 -0.284701 0
-0.00459537 -0.290772 0
-0.00652059 -0.298677 0
-0.00626987 -0.309276 0
-0.00395719 -0.319645 0
-0.00224695 -0.328003 0
-0.00282833 -0.335528 0
-0.00469342 -0.344589 0
-0.00612117 -0.352437 0
-0.00629196 -0.35647 0
-0.00513765 -0.358449 0
-0.00292999 -0.359571 0
-7.94936e-05 -0.360451 0
0.00288641 -0.362284 0
0.00529824 -0.365425 0
0.00644457 -0.369565 0
0.00585071 -0.374577 0
0.00360453 -0.380854 0
0.000419052 -0.388867 0
-0.00270267 -0.398547 0
-0.0049602 -0.409156 0
-0.0060535 -0.41971 0
-0.00614412 -0.429533 0
-0.00560513 -0.438487 0
-0.00477367 -0.446815 0
-0.00383262 -0.454808 0
-0.00282755 -0.462554 0
-0.00174103 -0.469892 0
-0.000560033 -0.476522 0
0.000686612 -0.482158 0
0.00192716 -0.486644 0
0.00306794 -0.489983 0
0.00401884 -0.492309 0
0.00471272 -0.493828 0
0.0051154 -0.494757 0
0.00522742 -0.495291 0
0.00507969 -0.49558 0
0.00472571 -0.49573 0
0.00423197 -0.495806 0
0.0036685 -0.495849 0
0.00310076 -0.495878 0
0.00258387 -0.4959 0
0.00215974 -0.495919 0
0.00185464 -0.495933 0
0.00167067 -0.49594 0
0.0161942 -0.0818379 0
0.00792511 -0.0826839 0
0.0387655 -0.134633 0
-0.0422704 -0.119988 0
0.0379043 -0.293264 0
0.053762 -0.351613 0
-0.00415583 -0.284065 0
0.0581546 -0.414747 0
-0.0839572 -0.239073 0