<?xml version='1.0' encoding='UTF-8'?>
<VTKFile byte_order='LittleEndian' version='0.1' type = 'UnstructuredGrid'>
<UnstructuredGrid>
<FieldData>
<DataArray type='Float64' Name='Time' NumberOfComponents='1' NumberOfTuples='1' format='ascii'>
1.681
</DataArray>
</FieldData>
<Piece NumberOfCells='808' NumberOfPoints='808'>
<Points>
<DataArray NumberOfComponents='3' type='Float64' Name='position' format='ascii'>
0 0 0
0 0.025 0
0 0.05 0
0 0.075 0
0 0.1 0
0 0.125 0
0 0.15 0
0 0.175 0
0.025 0 0
0.05 0 0
0.075 0 0
0.1 0 0
0.125 0 0
0.15 0 0
0.175 0 0
0.2 0 0
0.225 0 0
0.25 0 0
0.275 0 0
0.3 0 0
0.325 0 0
0.348308 -0.00298937 0
0.378961 -0.0281581 0
0.404426 -0.0421334 0
0.429885 -0.0543935 0
0.455257 -0.0652392 0
0.479852 -0.07499 0
0.504624 -0.0845297 0
0.529439 -0.0937686 0
0.554345 -0.102422 0
0.578983 -0.110855 0
0.603477 -0.119421 0
0.628644 -0.127616 0
0.653426 -0.135654 0
0.67801 -0.143713 0
0.702953 -0.151581 0
0.727802 -0.15907 0
0.752765 -0.166065 0
0.777826 -0.172888 0
0.802679 -0.179591 0
0.827582 -0.185968 0
0.852554 -0.192172 0
0.877331 -0.198316 0
0.902115 -0.204144 0
0.92714 -0.209539 0
0.952212 -0.214611 0
0.977163 -0.219392 0
1.00209 -0.223955 0
1.02705 -0.228492 0
1.05197 -0.233082 0
1.07682 -0.237581 0
1.10164 -0.241856 0
1.12648 -0.245953 0
1.15132 -0.249963 0
1.17618 -0.253857 0
1.2011 -0.257534 0
1.22611 -0.260947 0
1.25118 -0.264125 0
1.27628 -0.267093 0
1.30137 -0.269823 0
1.32645 -0.272256 0
1.35151 -0.274354 0
1.37654 -0.276122 0
1.40154 -0.277598 0
1.42651 -0.278818 0
1.45145 -0.27981 0
1.47635 -0.280591 0
1.50124 -0.281181 0
1.52611 -0.281601 0
1.55097 -0.281881 0
1.57583 -0.282051 0
1.60069 -0.282142 0
1.62555 -0.28218 0
1.65043 -0.282185 0
1.67532 -0.282173 0
1.70023 -0.282154 0
1.72516 -0.282134 0
1.75011 -0.282116 0
1.77507 -0.282102 0
1.80004 -0.282092 0
1.82503 -0.282084 0
1.85002 -0.282079 0
1.87501 -0.282076 0
1.90001 -0.282074 0
1.925 -0.282073 0
1.95 -0.282073 0
1.975 -0.282072 0
2 -0.282072 0
2.025 -0.282072 0
2.05 -0.282072 0
2.075 -0.282072 0
2.1 -0.282072 0
2.125 -0.282072 0
2.15 -0.282072 0
2.175 -0.282072 0
2.2 -0.282072 0
2.225 -0.282072 0
2.25 -0.282072 0
2.275 -0.282072 0
2.3 -0.282072 0
2.325 -0.282072 0
2.35 -0.282072 0
2.375 -0.282072 0
2.4 -0.282072 0
2.425 -0.282072 0
2.45 -0.282072 0
2.475 -0.282072 0
2.5 -0.282072 0
0.0247743 0.0244332 0
0.049719 0.024113 0
0.0747082 0.0237118 0
0.0996251 0.0234261 0
0.124666 0.02286 0
0.149562 0.0229189 0
0.174496 0.0220934 0
0.199662 0.0217007 0
0.224497 0.020822 0
0.249764 0.0198648 0
0.274955 0.0190899 0
0.300239 0.0169048 0
0.326687 0.0136864 0
0.353806 0.0053637 0
0.379893 -0.00738858 0
0.404893 -0.0191028 0
0.430059 -0.0303382 0
0.455054 -0.0407062 0
0.479839 -0.0504561 0
0.504628 -0.0600788 0
0.529405 -0.0692475 0
0.554257 -0.0778841 0
0.579045 -0.086426 0
0.603742 -0.0948264 0
0.628573 -0.102874 0
0.653279 -0.110872 0
0.678006 -0.118937 0
0.702927 -0.126758 0
0.727821 -0.134154 0
0.752754 -0.141238 0
0.777742 -0.148125 0
0.802666 -0.154819 0
0.827606 -0.161217 0
0.852553 -0.167392 0
0.877386 -0.173442 0
0.902203 -0.179224 0
0.927149 -0.18462 0
0.952161 -0.189683 0
0.977136 -0.194476 0
1.00209 -0.199081 0
1.02704 -0.203627 0
1.05196 -0.208155 0
1.07682 -0.212589 0
1.10165 -0.21685 0
1.12648 -0.220962 0
1.15131 -0.224981 0
1.17618 -0.228879 0
1.20111 -0.232574 0
1.22611 -0.236014 0
1.25118 -0.239209 0
1.27628 -0.242169 0
1.30137 -0.244873 0
1.32645 -0.247276 0
1.35151 -0.24935 0
1.37654 -0.251103 0
1.40154 -0.252567 0
1.4265 -0.253779 0
1.45144 -0.254763 0
1.47635 -0.255539 0
1.50124 -0.256124 0
1.52611 -0.256541 0
1.55098 -0.25682 0
1.57583 -0.256992 0
1.60069 -0.257087 0
1.62556 -0.25713 0
1.65043 -0.257143 0
1.67533 -0.257139 0
1.70024 -0.257127 0
1.72517 -0.257114 0
1.75011 -0.257102 0
1.77507 -0.257092 0
1.80005 -0.257085 0
1.82503 -0.25708 0
1.85002 -0.257077 0
1.87501 -0.257075 0
1.90001 -0.257074 0
1.925 -0.257073 0
1.95 -0.257072 0
1.975 -0.257072 0
2 -0.257072 0
2.025 -0.257072 0
2.05 -0.257072 0
2.075 -0.257072 0
2.1 -0.257072 0
2.125 -0.257072 0
2.15 -0.257072 0
2.175 -0.257072 0
2.2 -0.257072 0
2.225 -0.257072 0
2.25 -0.257072 0
2.275 -0.257072 0
2.3 -0.257072 0
2.325 -0.257072 0
2.35 -0.257072 0
2.375 -0.257072 0
2.4 -0.257072 0
2.425 -0.257072 0
2.45 -0.257072 0
2.475 -0.257072 0
2.5 -0.257072 0
0.0247334 0.0490016 0
0.0495759 0.0483951 0
0.0744947 0.0475997 0
0.0993587 0.0471416 0
0.12434 0.046098 0
0.149396 0.0455213 0
0.174441 0.0444237 0
0.199614 0.0438652 0
0.224628 0.0426849 0
0.250028 0.0412337 0
0.275401 0.0395385 0
0.300988 0.0359781 0
0.327552 0.0315963 0
0.354203 0.0237705 0
0.380104 0.0134368 0
0.405246 0.00336238 0
0.430207 -0.00679245 0
0.45512 -0.0168097 0
0.480074 -0.026371 0
0.50484 -0.035414 0
0.529494 -0.0443492 0
0.554251 -0.0530297 0
0.579009 -0.0615269 0
0.603705 -0.0700055 0
0.628495 -0.0781094 0
0.653286 -0.0859929 0
0.678083 -0.0939797 0
0.702942 -0.101789 0
0.727801 -0.109158 0
0.752712 -0.116271 0
0.777696 -0.123245 0
0.802665 -0.129948 0
0.827618 -0.136367 0
0.852562 -0.142554 0
0.877444 -0.148508 0
0.902286 -0.154197 0
0.927183 -0.159596 0
0.952147 -0.164698 0
0.977121 -0.169531 0
1.00208 -0.174174 0
1.02703 -0.178713 0
1.05195 -0.183176 0
1.07682 -0.187546 0
1.10166 -0.191788 0
1.12648 -0.195916 0
1.15131 -0.199954 0
1.17617 -0.203872 0
1.2011 -0.207595 0
1.22611 -0.211069 0
1.25118 -0.214286 0
1.27627 -0.217243 0
1.30138 -0.219924 0
1.32646 -0.222295 0
1.35152 -0.224343 0
1.37654 -0.226078 0
1.40154 -0.227533 0
1.4265 -0.22874 0
1.45144 -0.229721 0
1.47635 -0.230494 0
1.50124 -0.231075 0
1.52611 -0.231489 0
1.55098 -0.231766 0
1.57584 -0.231938 0
1.60069 -0.232036 0
1.62556 -0.232085 0
1.65044 -0.232104 0
1.67533 -0.232107 0
1.70024 -0.232103 0
1.72517 -0.232096 0
1.75011 -0.23209 0
1.77508 -0.232084 0
1.80005 -0.23208 0
1.82503 -0.232077 0
1.85002 -0.232075 0
1.87501 -0.232074 0
1.90001 -0.232073 0
1.925 -0.232073 0
1.95 -0.232072 0
1.975 -0.232072 0
2 -0.232072 0
2.025 -0.232072 0
2.05 -0.232072 0
2.075 -0.232072 0
2.1 -0.232072 0
2.125 -0.232072 0
2.15 -0.232072 0
2.175 -0.232072 0
2.2 -0.232072 0
2.225 -0.232072 0
2.25 -0.232072 0
2.275 -0.232072 0
2.3 -0.232072 0
2.325 -0.232072 0
2.35 -0.232072 0
2.375 -0.232072 0
2.4 -0.232072 0
2.425 -0.232072 0
2.45 -0.232072 0
2.475 -0.232072 0
2.5 -0.232072 0
0.0247567 0.0738211 0
0.0495477 0.0730102 0
0.0744376 0.072189 0
0.0994168 0.0716474 0
0.124465 0.0705394 0
0.149487 0.0699176 0
0.174501 0.0686326 0
0.199614 0.0675813 0
0.224796 0.0659825 0
0.250275 0.0638957 0
0.275895 0.0613246 0
0.301653 0.0568427 0
0.327851 0.0519569 0
0.354085 0.044734 0
0.379897 0.0355965 0
0.40528 0.0263406 0
0.430246 0.0169144 0
0.455141 0.00738373 0
0.480059 -0.00167253 0
0.504781 -0.0106965 0
0.529461 -0.0196757 0
0.554268 -0.0281006 0
0.579041 -0.0365265 0
0.603695 -0.0450798 0
0.628473 -0.0533129 0
0.65335 -0.0611429 0
0.678171 -0.0690007 0
0.702948 -0.0768145 0
0.727754 -0.0842475 0
0.752675 -0.0913593 0
0.777695 -0.0982896 0
0.80268 -0.105014 0
0.827602 -0.111499 0
0.852535 -0.117696 0
0.877471 -0.12358 0
0.902363 -0.129188 0
0.927249 -0.134568 0
0.952175 -0.139712 0
0.977124 -0.144589 0
1.00207 -0.149258 0
1.02701 -0.153777 0
1.05193 -0.158178 0
1.07682 -0.162487 0
1.10167 -0.166706 0
1.12648 -0.170847 0
1.1513 -0.174913 0
1.17616 -0.178862 0
1.20109 -0.182623 0
1.2261 -0.186135 0
1.25117 -0.189376 0
1.27627 -0.192334 0
1.30137 -0.194991 0
1.32646 -0.197329 0
1.35152 -0.199344 0
1.37655 -0.201059 0
1.40154 -0.202504 0
1.4265 -0.203707 0
1.45144 -0.204688 0
1.47635 -0.205458 0
1.50124 -0.206035 0
1.52612 -0.206444 0
1.55098 -0.206717 0
1.57584 -0.206887 0
1.6007 -0.206986 0
1.62556 -0.207039 0
1.65044 -0.207065 0
1.67533 -0.207076 0
1.70024 -0.207079 0
1.72517 -0.207079 0
1.75012 -0.207077 0
1.77508 -0.207076 0
1.80005 -0.207075 0
1.82503 -0.207074 0
1.85002 -0.207073 0
1.87501 -0.207073 0
1.90001 -0.207072 0
1.925 -0.207072 0
1.95 -0.207072 0
1.975 -0.207072 0
2 -0.207072 0
2.025 -0.207072 0
2.05 -0.207072 0
2.075 -0.207072 0
2.1 -0.207072 0
2.125 -0.207072 0
2.15 -0.207072 0
2.175 -0.207072 0
2.2 -0.207072 0
2.225 -0.207072 0
2.25 -0.207072 0
2.275 -0.207072 0
2.3 -0.207072 0
2.325 -0.207072 0
2.35 -0.207072 0
2.375 -0.207072 0
2.4 -0.207072 0
2.425 -0.207072 0
2.45 -0.207072 0
2.475 -0.207072 0
2.5 -0.207072 0
0.0246663 0.0987677 0
0.0494509 0.097846 0
0.0744331 0.0968968 0
0.0994815 0.0962343 0
0.124438 0.0951752 0
0.149439 0.094441 0
0.174575 0.0930018 0
0.199799 0.0914966 0
0.225101 0.0893815 0
0.250586 0.0866897 0
0.276323 0.0836558 0
0.30222 0.0790183 0
0.328209 0.0735667 0
0.354022 0.0667777 0
0.379822 0.0584449 0
0.40518 0.0498692 0
0.430129 0.0408966 0
0.455035 0.0318657 0
0.479968 0.0228716 0
0.504718 0.0139806 0
0.529343 0.00528452 0
0.554167 -0.00334717 0
0.579061 -0.0118071 0
0.603788 -0.0201162 0
0.628521 -0.0283454 0
0.653353 -0.0362553 0
0.678169 -0.0440819 0
0.702928 -0.0519393 0
0.727724 -0.0594128 0
0.752672 -0.066469 0
0.777726 -0.0733205 0
0.802698 -0.0800517 0
0.827566 -0.0865911 0
0.852477 -0.0928203 0
0.877464 -0.0986762 0
0.902429 -0.104224 0
0.927339 -0.109582 0
0.952236 -0.11475 0
0.977141 -0.119654 0
1.00205 -0.124333 0
1.02698 -0.128829 0
1.05191 -0.133177 0
1.07681 -0.137431 0
1.10166 -0.141626 0
1.12647 -0.145778 0
1.15129 -0.149876 0
1.17615 -0.153864 0
1.20108 -0.157665 0
1.22609 -0.161216 0
1.25115 -0.164482 0
1.27625 -0.167442 0
1.30137 -0.170077 0
1.32647 -0.172379 0
1.35153 -0.174359 0
1.37656 -0.176049 0
1.40155 -0.177482 0
1.42651 -0.178683 0
1.45144 -0.179662 0
1.47635 -0.180431 0
1.50124 -0.181002 0
1.52612 -0.181404 0
1.55099 -0.181671 0
1.57584 -0.181838 0
1.6007 -0.181938 0
1.62556 -0.181995 0
1.65044 -0.182027 0
1.67533 -0.182045 0
1.70024 -0.182055 0
1.72517 -0.182061 0
1.75012 -0.182065 0
1.77508 -0.182068 0
1.80005 -0.182069 0
1.82503 -0.18207 0
1.85002 -0.182071 0
1.87501 -0.182071 0
1.90001 -0.182072 0
1.925 -0.182072 0
1.95 -0.182072 0
1.975 -0.182072 0
2 -0.182072 0
2.025 -0.182072 0
2.05 -0.182072 0
2.075 -0.182072 0
2.1 -0.182072 0
2.125 -0.182072 0
2.15 -0.182072 0
2.175 -0.182072 0
2.2 -0.182072 0
2.225 -0.182072 0
2.25 -0.182072 0
2.275 -0.182072 0
2.3 -0.182072 0
2.325 -0.182072 0
2.35 -0.182072 0
2.375 -0.182072 0
2.4 -0.182072 0
2.425 -0.182072 0
2.45 -0.182072 0
2.475 -0.182072 0
2.5 -0.182072 0
0.0246993 0.123404 0
0.0495523 0.122129 0
0.074596 0.120707 0
0.0995543 0.119625 0
0.124394 0.118072 0
0.149423 0.117079 0
0.174688 0.115383 0
0.199988 0.113685 0
0.225529 0.111447 0
0.250843 0.108524 0
0.276403 0.105468 0
0.30229 0.100964 0
0.328266 0.0955477 0
0.353896 0.0887643 0
0.379504 0.0814275 0
0.404905 0.0732088 0
0.429892 0.0649559 0
0.454944 0.056092 0
0.479942 0.0475394 0
0.504726 0.0387348 0
0.52933 0.0299336 0
0.554175 0.0214793 0
0.579009 0.0130872 0
0.603701 0.00480851 0
0.628485 -0.00334599 0
0.653337 -0.0113571 0
0.678143 -0.0192868 0
0.702892 -0.0270962 0
0.727691 -0.034533 0
0.752676 -0.0415521 0
0.777756 -0.0483607 0
0.802709 -0.0550925 0
0.827534 -0.0616607 0
0.852427 -0.0679155 0
0.877452 -0.0737822 0
0.902486 -0.0793065 0
0.92743 -0.0846393 0
0.952302 -0.089802 0
0.977158 -0.094702 0
1.00204 -0.0993905 0
1.02695 -0.103872 0
1.05189 -0.108179 0
1.0768 -0.112383 0
1.10166 -0.116552 0
1.12646 -0.120714 0
1.15128 -0.124847 0
1.17614 -0.128877 0
1.20107 -0.132718 0
1.22607 -0.136304 0
1.25113 -0.139595 0
1.27624 -0.14256 0
1.30136 -0.145177 0
1.32647 -0.147444 0
1.35154 -0.149388 0
1.37657 -0.15105 0
1.40156 -0.15247 0
1.42652 -0.153667 0
1.45145 -0.154646 0
1.47636 -0.155411 0
1.50125 -0.155977 0
1.52613 -0.156371 0
1.55099 -0.15663 0
1.57585 -0.156792 0
1.6007 -0.156891 0
1.62557 -0.156951 0
1.65044 -0.156988 0
1.67533 -0.157013 0
1.70024 -0.157031 0
1.72517 -0.157043 0
1.75012 -0.157053 0
1.77508 -0.157059 0
1.80005 -0.157064 0
1.82503 -0.157067 0
1.85002 -0.157069 0
1.87501 -0.15707 0
1.90001 -0.157071 0
1.925 -0.157071 0
1.95 -0.157072 0
1.975 -0.157072 0
2 -0.157072 0
2.025 -0.157072 0
2.05 -0.157072 0
2.075 -0.157072 0
2.1 -0.157072 0
2.125 -0.157072 0
2.15 -0.157072 0
2.175 -0.157072 0
2.2 -0.157072 0
2.225 -0.157072 0
2.25 -0.157072 0
2.275 -0.157072 0
2.3 -0.157072 0
2.325 -0.157072 0
2.35 -0.157072 0
2.375 -0.157072 0
2.4 -0.157072 0
2.425 -0.157072 0
2.45 -0.157072 0
2.475 -0.157072 0
2.5 -0.157072 0
0.0247994 0.148449 0
0.0496711 0.14718 0
0.0745961 0.145923 0
0.0995503 0.144707 0
0.124554 0.14317 0
0.149805 0.14192 0
0.175003 0.139721 0
0.199842 0.137917 0
0.225517 0.135797 0
0.251064 0.132599 0
0.276432 0.129215 0
0.302332 0.124562 0
0.328185 0.119119 0
0.353719 0.112524 0
0.379315 0.105405 0
0.404817 0.0973986 0
0.429792 0.0892273 0
0.454817 0.0805378 0
0.479924 0.0721531 0
0.504612 0.0631234 0
0.529129 0.0546998 0
0.554204 0.0465758 0
0.579087 0.0380095 0
0.603603 0.0295668 0
0.628369 0.0213627 0
0.653354 0.0133801 0
0.678174 0.0055646 0
0.702813 -0.0021518 0
0.727578 -0.00962122 0
0.752641 -0.0166845 0
0.777786 -0.0234754 0
0.802728 -0.0301683 0
0.827513 -0.0367412 0
0.852395 -0.043027 0
0.877455 -0.0489047 0
0.90254 -0.0544369 0
0.927503 -0.0597476 0
0.952349 -0.0648466 0
0.977162 -0.0697474 0
1.00201 -0.074454 0
1.02693 -0.0789306 0
1.05188 -0.0832036 0
1.0768 -0.0873618 0
1.10165 -0.0915038 0
1.12645 -0.0956766 0
1.15127 -0.0998445 0
1.17613 -0.103914 0
1.20107 -0.107788 0
1.22606 -0.111404 0
1.25111 -0.114718 0
1.27622 -0.11769 0
1.30135 -0.120292 0
1.32647 -0.122527 0
1.35155 -0.124433 0
1.37658 -0.126067 0
1.40157 -0.127472 0
1.42653 -0.128663 0
1.45145 -0.129639 0
1.47636 -0.1304 0
1.50125 -0.130958 0
1.52613 -0.131342 0
1.55099 -0.131593 0
1.57585 -0.131749 0
1.6007 -0.131846 0
1.62557 -0.131908 0
1.65044 -0.131951 0
1.67533 -0.131982 0
1.70024 -0.132007 0
1.72517 -0.132026 0
1.75011 -0.13204 0
1.77507 -0.132051 0
1.80005 -0.132058 0
1.82503 -0.132064 0
1.85002 -0.132067 0
1.87501 -0.132069 0
1.90001 -0.13207 0
1.925 -0.132071 0
1.95 -0.132072 0
1.975 -0.132072 0
2 -0.132072 0
2.025 -0.132072 0
2.05 -0.132072 0
2.075 -0.132072 0
2.1 -0.132072 0
2.125 -0.132072 0
2.15 -0.132072 0
2.175 -0.132072 0
2.2 -0.132072 0
2.225 -0.132072 0
2.25 -0.132072 0
2.275 -0.132072 0
2.3 -0.132072 0
2.325 -0.132072 0
2.35 -0.132072 0
2.375 -0.132072 0
2.4 -0.132072 0
2.425 -0.132072 0
2.45 -0.132072 0
2.475 -0.132072 0
2.5 -0.132072 0
0.0249017 0.173263 0
0.0497197 0.172064 0
0.0746009 0.170631 0
0.0994316 0.169397 0
0.124769 0.167929 0
0.14957 0.166431 0
0.175028 0.16491 0
0.200337 0.162639 0
0.225318 0.160124 0
0.251371 0.156966 0
0.276545 0.153019 0
0.302272 0.148548 0
0.328296 0.142968 0
0.353382 0.136755 0
0.379227 0.129612 0
0.404961 0.121823 0
0.429559 0.113526 0
0.454611 0.105239 0
0.479909 0.0966206 0
0.504358 0.088293 0
0.529041 0.0797103 0
0.554298 0.0709955 0
0.579226 0.0625522 0
0.603591 0.0541525 0
0.628259 0.0458827 0
0.653416 0.037929 0
0.678249 0.0302877 0
0.70267 0.0227582 0
0.727381 0.0152342 0
0.752589 0.00800702 0
0.777844 0.00120521 0
0.802768 -0.00539494 0
0.827483 -0.0119203 0
0.85235 -0.0182295 0
0.877465 -0.0241492 0
0.902602 -0.0296809 0
0.927563 -0.0349219 0
0.952372 -0.0399482 0
0.97715 -0.0448412 0
1.00199 -0.0495642 0
1.02691 -0.054044 0
1.05188 -0.0582878 0
1.07681 -0.0623981 0
1.10165 -0.0665099 0
1.12644 -0.0706919 0
1.15125 -0.0748948 0
1.17612 -0.0789977 0
1.20105 -0.0828954 0
1.22604 -0.0865302 0
1.25109 -0.0898617 0
1.2762 -0.0928411 0
1.30134 -0.0954295 0
1.32647 -0.0976316 0
1.35156 -0.0994995 0
1.3766 -0.101102 0
1.40159 -0.102487 0
1.42654 -0.103668 0
1.45146 -0.104638 0
1.47637 -0.105392 0
1.50126 -0.10594 0
1.52613 -0.106313 0
1.551 -0.106554 0
1.57585 -0.106704 0
1.6007 -0.106799 0
1.62556 -0.106863 0
1.65044 -0.106911 0
1.67533 -0.106949 0
1.70023 -0.10698 0
1.72516 -0.107006 0
1.75011 -0.107026 0
1.77507 -0.107041 0
1.80004 -0.107052 0
1.82503 -0.10706 0
1.85002 -0.107065 0
1.87501 -0.107068 0
1.90001 -0.10707 0
1.925 -0.107071 0
1.95 -0.107071 0
1.975 -0.107072 0
2 -0.107072 0
2.025 -0.107072 0
2.05 -0.107072 0
2.075 -0.107072 0
2.1 -0.107072 0
2.125 -0.107072 0
2.15 -0.107072 0
2.175 -0.107072 0
2.2 -0.107072 0
2.225 -0.107072 0
2.25 -0.107072 0
2.275 -0.107072 0
2.3 -0.107072 0
2.325 -0.107072 0
2.35 -0.107072 0
2.375 -0.107072 0
2.4 -0.107072 0
2.425 -0.107072 0
2.45 -0.107072 0
2.475 -0.107072 0
2.5 -0.107072 0
</DataArray>
</Points>
<PointData>
<DataArray NumberOfComponents='1' type='Int32' Name='Particle Type' format='ascii'>
0
0
0
0
0
0
0
0
0
0
0
0
0
0
0
0
0
0
0
0
0
0
1
1
1
1
1
1
1
1
1
1
1
1
1
1
1
1
1
1
1
1
1
1
1
1
1
1
1
1
1
1
1
1
1
1
1
1
1
1
1
1
1
1
1
1
1
1
1
1
1
1
1
1
1
1
1
1
1
1
1
1
1
1
1
1
1
1
1
1
1
1
1
1
1
1
1
1
1
1
1
1
1
1
1
1
1
1
1
1
1
1
1
1
1
1
1
1
1
1
1
1
1
1
1
1
1
1
1
1
1
1
1
1
1
1
1
1
1
1
1
1
1
1
1
1
1
1
1
1
1
1
1
1
1
1
1
1
1
1
1
1
1
1
1
1
1
1
1
1
1
1
1
1
1
1
1
1
1
1
1
1
1
1
1
1
1
1
1
1
1
1
1
1
1
1
1
1
1
1
1
1
1
1
1
1
1
1
1
1
1
1
1
1
1
1
1
1
1
1
1
1
1
1
1
1
1
1
1
1
1
1
1
1
1
1
1
1
1
1
1
1
1
1
1
1
1
1
1
1
1
1
1
1
1
1
1
1
1
1
1
1
1
1
1
1
1
1
1
1
1
1
1
1
1
1
1
1
1
1
1
1
1
1
1
1
1
1
1
1
1
1
1
1
1
1
1
1
1
1
1
1
1
1
1
1
1
1
1
1
1
1
1
1
1
1
1
1
1
1
1
1
1
1
1
1
1
1
1
1
1
1
1
1
1
1
1
1
1
1
1
1
1
1
1
1
1
1
1
1
1
1
1
1
1
1
1
1
1
1
1
1
1
1
1
1
1
1
1
1
1
1
1
1
1
1
1
1
1
1
1
1
1
1
1
1
1
1
1
1
1
1
1
1
1
1
1
1
1
1
1
1
1
1
1
1
1
1
1
1
1
1
1
1
1
1
1
1
1
1
1
1
1
1
1
1
1
1
1
1
1
1
1
1
1
1
1
1
1
1
1
1
1
1
1
1
1
1
1
1
1
1
1
1
1
1
1
1
1
1
1
1
1
1
1
1
1
1
1
1
1
1
1
1
1
1
1
1
1
1
1
1
1
1
1
1
1
1
1
1
1
1
1
1
1
1
1
1
1
1
1
1
1
1
1
1
1
1
1
1
1
1
1
1
1
1
1
1
1
1
1
1
1
1
1
1
1
1
1
1
1
1
1
1
1
1
1
1
1
1
1
1
1
1
1
1
1
1
1
1
1
1
1
1
1
1
1
1
1
1
1
1
1
1
1
1
1
1
1
1
1
1
1
1
1
1
1
1
1
1
1
1
1
1
1
1
1
1
1
1
1
1
1
1
1
1
1
1
1
1
1
1
1
1
1
1
1
1
1
1
1
1
1
1
1
1
1
1
1
1
1
1
1
1
1
1
1
1
1
1
1
1
1
1
1
1
1
1
1
1
1
1
1
1
1
1
1
1
1
1
1
1
1
1
1
1
1
1
1
1
1
1
1
1
1
1
1
1
1
1
1
1
1
1
1
1
1
1
1
1
1
1
1
1
1
1
1
1
1
1
1
1
1
1
1
1
1
1
1
1
1
1
1
1
1
1
1
1
1
1
1
1
1
1
1
1
1
1
1
1
1
1
1
1
1
1
1
1
1
1
1
1
1
1
1
1
1
1
1
1
1
1
1
1
1
1
1
1
1
1
1
1
1
1
1
1
1
1
1
1
1
1
1
1
1
1
1
1
1
1
1
1
1
1
1
1
1
1
1
1
1
1
1
1
1
1
1
1
1
1
1
1
1
1
1
1
1
1
1
1
1
1
1
1
1
1
1
1
</DataArray>
<DataArray NumberOfComponents='3' type='Float64' Name='Velocity' format='ascii'>
0 0 0
0 0 0
0 0 0
0 0 0
0 0 0
0 0 0
0 0 0
0 0 0
0 0 0
0 0 0
0 0 0
0 0 0
0 0 0
0 0 0
0 0 0
0 0 0
0 0 0
0 0 0
0 0 0
0 0 0
0 0 0
-0.0221556 -0.0461852 0
-0.00591624 -0.0284653 0
0.000705836 -0.0386362 0
-0.0148152 -0.0291239 0
0.00194669 -0.0562046 0
0.0112601 -0.0583066 0
0.00331355 -0.0582626 0
0.00360269 -0.0670262 0
0.00315179 -0.0788566 0
0.0156232 -0.0737687 0
0.000930298 -0.074689 0
-0.00576289 -0.0844461 0
0.0100123 -0.0843115 0
0.00354131 -0.0872393 0
-0.000348418 -0.096428 0
0.0011026 -0.111947 0
-0.00422162 -0.123844 0
-0.000427639 -0.12668 0
0.00338846 -0.133414 0
3.97143e-05 -0.140962 0
0.00277325 -0.142543 0
0.00641807 -0.147433 0
0.000620835 -0.160069 0
-0.00483819 -0.172295 0
-0.00237515 -0.181974 0
0.000891614 -0.190321 0
0.000633158 -0.193466 0
0.000748603 -0.192105 0
0.00291204 -0.192244 0
0.0045306 -0.197953 0
0.00462364 -0.205188 0
0.00446066 -0.209669 0
0.00424927 -0.212895 0
0.00293639 -0.218301 0
0.000399836 -0.226056 0
-0.00212073 -0.233786 0
-0.00349636 -0.240313 0
-0.00366167 -0.246812 0
-0.00319952 -0.254897 0
-0.00255787 -0.264764 0
-0.00179698 -0.275273 0
-0.000821026 -0.285154 0
0.000362415 -0.293853 0
0.00160436 -0.301489 0
0.00272864 -0.308378 0
0.00363316 -0.314679 0
0.00430345 -0.320329 0
0.00476542 -0.325167 0
0.00503717 -0.329071 0
0.00511379 -0.332023 0
0.00498217 -0.334101 0
0.00464482 -0.335449 0
0.00413374 -0.336232 0
0.00350787 -0.33661 0
0.00283866 -0.336725 0
0.00219277 -0.336686 0
0.00161948 -0.336574 0
0.00114571 -0.336442 0
0.000777955 -0.336319 0
0.000508012 -0.336218 0
0.000319635 -0.336142 0
0.000194118 -0.336088 0
0.000113979 -0.336053 0
6.48034e-05 -0.336031 0
3.57266e-05 -0.336017 0
1.91236e-05 -0.336009 0
9.95077e-06 -0.336005 0
5.03885e-06 -0.336002 0
2.48567e-06 -0.336001 0
1.19566e-06 -0.336001 0
5.61321e-07 -0.336 0
2.57406e-07 -0.336 0
1.1539e-07 -0.336 0
5.06033e-08 -0.336 0
2.17245e-08 -0.336 0
9.13608e-09 -0.336 0
3.76584e-09 -0.336 0
1.52235e-09 -0.336 0
6.03916e-10 -0.336 0
2.35161e-10 -0.336 0
8.99128e-11 -0.336 0
3.39553e-11 -0.336 0
1.26142e-11 -0.336 0
4.59995e-12 -0.336 0
1.6515e-12 -0.336 0
5.4506e-13 -0.336 0
1.21926e-13 -0.336 0
-0.00560979 -0.00520346 0
-0.00632419 -0.00928434 0
-0.0011383 -0.0238691 0
0.00111024 -0.0138879 0
0.00046428 -0.0212785 0
0.00579443 -0.0130926 0
-0.00531176 -0.00213541 0
0.00134562 -0.0151082 0
0.00259827 -0.00289712 0
-0.0132485 -0.0317489 0
-0.00491418 -0.0238019 0
0.0103462 -0.0178423 0
0.010021 -0.0189298 0
-0.0256228 -0.0420225 0
-0.00594128 -0.0445165 0
-0.00167543 -0.0419778 0
0.00013689 -0.0376027 0
0.00551272 -0.046357 0
0.00637253 -0.0438017 0
0.00412297 -0.0456482 0
0.00222618 -0.061813 0
0.000370971 -0.0716989 0
0.00528916 -0.0740814 0
0.00491209 -0.0840766 0
0.00562964 -0.0895766 0
0.00839842 -0.0861147 0
0.00190987 -0.0881779 0
-0.00118791 -0.099996 0
-0.000192028 -0.111477 0
-0.00196369 -0.119134 0
-0.000955262 -0.124714 0
0.000425341 -0.132399 0
-0.000316119 -0.140834 0
0.00208086 -0.14521 0
0.0047929 -0.150374 0
0.00219893 -0.16106 0
-0.00162611 -0.172804 0
-0.00174697 -0.182213 0
-0.000265755 -0.189294 0
0.000292538 -0.192443 0
0.000979712 -0.193163 0
0.00260869 -0.194694 0
0.00409746 -0.19941 0
0.00472124 -0.20516 0
0.00477247 -0.209246 0
0.00426926 -0.212637 0
0.00276355 -0.217839 0
0.000366653 -0.225164 0
-0.00198652 -0.232932 0
-0.00340193 -0.240112 0
-0.00372018 -0.247387 0
-0.00332563 -0.255877 0
-0.00260761 -0.265713 0
-0.00172171 -0.275988 0
-0.000685761 -0.285653 0
0.000463004 -0.294223 0
0.00162234 -0.301787 0
0.00267636 -0.308624 0
0.00355176 -0.314872 0
0.00422747 -0.320464 0
0.0047079 -0.325238 0
0.00499455 -0.329068 0
0.00507801 -0.33194 0
0.00494932 -0.333941 0
0.00461681 -0.335225 0
0.00411525 -0.335969 0
0.0035025 -0.336337 0
0.00284675 -0.336467 0
0.00221154 -0.336462 0
0.0016444 -0.336393 0
0.00117222 -0.336304 0
0.000802548 -0.336219 0
0.000528657 -0.336149 0
0.000335642 -0.336097 0
0.000205731 -0.33606 0
0.000121933 -0.336036 0
6.99791e-05 -0.336021 0
3.8943e-05 -0.336011 0
2.10401e-05 -0.336006 0
1.10491e-05 -0.336003 0
5.64598e-06 -0.336002 0
2.81009e-06 -0.336001 0
1.36358e-06 -0.336 0
6.45661e-07 -0.336 0
2.98572e-07 -0.336 0
1.34943e-07 -0.336 0
5.96522e-08 -0.336 0
2.58091e-08 -0.336 0
1.09366e-08 -0.336 0
4.54113e-09 -0.336 0
1.84923e-09 -0.336 0
7.3859e-10 -0.336 0
2.89816e-10 -0.336 0
1.11525e-10 -0.336 0
4.22413e-11 -0.336 0
1.56978e-11 -0.336 0
5.75488e-12 -0.336 0
2.08542e-12 -0.336 0
7.50291e-13 -0.336 0
2.11068e-13 -0.336 0
8.15397e-05 0.00111314 0
-0.00172176 0.00391442 0
-0.00402141 0.00172471 0
-0.00298076 0.00776745 0
-0.00310449 0.0067658 0
0.00248258 -0.00441324 0
-0.00144418 -0.00580502 0
0.00156742 -0.0183675 0
0.00435296 0.00623838 0
-0.00196272 -0.0125593 0
-0.00179434 -0.000778116 0
-0.00565705 -0.00902002 0
0.0046774 -0.0291102 0
0.00469698 -0.0168037 0
-0.00436787 -0.0287213 0
-0.00108964 -0.0421656 0
0.00183642 -0.0338209 0
-0.00198382 -0.0412986 0
0.000415553 -0.0537439 0
0.00804346 -0.0652523 0
0.00825284 -0.0641874 0
0.00539307 -0.071569 0
0.00743774 -0.0725062 0
0.00618762 -0.0792576 0
0.00403862 -0.0910922 0
0.00405423 -0.0906878 0
0.00197256 -0.0898233 0
0.00110332 -0.100653 0
0.000996116 -0.111484 0
-0.00133298 -0.115434 0
-0.00233614 -0.121718 0
-0.00137114 -0.131694 0
-0.000711181 -0.139818 0
0.00105753 -0.147029 0
0.00348736 -0.154722 0
0.00317142 -0.163207 0
0.000633864 -0.172134 0
-0.000790208 -0.181168 0
-0.000466743 -0.187883 0
0.000253324 -0.191874 0
0.00102599 -0.194641 0
0.00224104 -0.197267 0
0.0037029 -0.201025 0
0.0048143 -0.205217 0
0.00515771 -0.208582 0
0.00449493 -0.211884 0
0.00275772 -0.216886 0
0.000328842 -0.223925 0
-0.00197883 -0.231832 0
-0.00345123 -0.239718 0
-0.00389431 -0.247855 0
-0.00354205 -0.256885 0
-0.00272888 -0.266788 0
-0.00169167 -0.276814 0
-0.000558167 -0.286157 0
0.000590284 -0.294485 0
0.00168274 -0.301929 0
0.0026628 -0.308737 0
0.00349679 -0.314997 0
0.00416841 -0.320595 0
0.0046654 -0.325343 0
0.00497084 -0.329111 0
0.00506605 -0.331895 0
0.00494211 -0.333806 0
0.0046116 -0.335018 0
0.00411294 -0.335719 0
0.00350507 -0.336077 0
0.00285517 -0.336224 0
0.00222503 -0.336253 0
0.00166097 -0.336226 0
0.00118948 -0.336178 0
0.000818525 -0.336129 0
0.000542131 -0.336088 0
0.000346164 -0.336057 0
0.000213423 -0.336036 0
0.000127241 -0.336021 0
7.34585e-05 -0.336012 0
4.11197e-05 -0.336007 0
2.2345e-05 -0.336004 0
1.18011e-05 -0.336002 0
6.06376e-06 -0.336001 0
3.03437e-06 -0.336 0
1.48016e-06 -0.336 0
7.04435e-07 -0.336 0
3.27358e-07 -0.336 0
1.4866e-07 -0.336 0
6.60188e-08 -0.336 0
2.86909e-08 -0.336 0
1.22096e-08 -0.336 0
5.09108e-09 -0.336 0
2.08132e-09 -0.336 0
8.34709e-10 -0.336 0
3.28421e-10 -0.336 0
1.26972e-10 -0.336 0
4.82051e-11 -0.336 0
1.79699e-11 -0.336 0
6.62567e-12 -0.336 0
2.43847e-12 -0.336 0
8.73012e-13 -0.336 0
2.7858e-13 -0.336 0
0.00194115 -0.00483566 0
0.000429528 -0.00215289 0
-0.00190103 -0.0043248 0
-0.00214061 -0.00447505 0
0.0016284 -0.011203 0
0.00279343 -0.0138512 0
-0.000401257 -0.00147815 0
-0.00134918 -0.0200811 0
-0.0029787 -0.0108177 0
-0.00162755 -0.0209218 0
-0.000938487 0.000724885 0
-0.00729579 -0.0133043 0
-0.00679886 -0.0326017 0
0.000289346 -0.0294817 0
-0.00589126 -0.0316279 0
-0.00261456 -0.0444107 0
0.00303373 -0.0395363 0
-0.000305266 -0.0494363 0
0.00272221 -0.0621432 0
0.00699472 -0.0535493 0
0.00513281 -0.0696813 0
0.00286643 -0.0772764 0
0.00736267 -0.0711974 0
0.00670887 -0.0721103 0
0.00122967 -0.0879413 0
0.00103585 -0.0944842 0
0.00366812 -0.0922126 0
0.00455775 -0.0985112 0
0.00219478 -0.109686 0
-0.00223709 -0.116386 0
-0.00362256 -0.122209 0
-0.00121313 -0.129631 0
0.000179154 -0.13826 0
0.000116042 -0.148408 0
0.00135018 -0.157899 0
0.00252748 -0.16543 0
0.00170939 -0.171907 0
0.00044547 -0.179642 0
0.000335533 -0.186799 0
0.000801105 -0.191901 0
0.00115944 -0.196402 0
0.00188801 -0.199759 0
0.00332653 -0.202674 0
0.00483942 -0.205397 0
0.00546066 -0.207794 0
0.00472273 -0.210723 0
0.00280849 -0.215511 0
0.000328652 -0.222427 0
-0.00197061 -0.230593 0
-0.00351972 -0.239219 0
-0.00410265 -0.248269 0
-0.00381692 -0.257952 0
-0.00293076 -0.268023 0
-0.00174247 -0.277813 0
-0.000484569 -0.286755 0
0.000703601 -0.29474 0
0.0017619 -0.302007 0
0.00268249 -0.308793 0
0.00347391 -0.315109 0
0.00413352 -0.320762 0
0.00464017 -0.325511 0
0.00496169 -0.329219 0
0.00506914 -0.331902 0
0.00495087 -0.333703 0
0.00462145 -0.334826 0
0.00412227 -0.335474 0
0.00351412 -0.335817 0
0.00286459 -0.335979 0
0.00223504 -0.336043 0
0.00167118 -0.336058 0
0.00119923 -0.336053 0
0.000827174 -0.336041 0
0.000549272 -0.336029 0
0.000351682 -0.336019 0
0.00021744 -0.336012 0
0.000130009 -0.336007 0
7.5273e-05 -0.336004 0
4.22561e-05 -0.336002 0
2.30272e-05 -0.336001 0
1.2195e-05 -0.336001 0
6.28298e-06 -0.336 0
3.15226e-06 -0.336 0
1.54153e-06 -0.336 0
7.35426e-07 -0.336 0
3.4256e-07 -0.336 0
1.55912e-07 -0.336 0
6.93888e-08 -0.336 0
3.02179e-08 -0.336 0
1.2885e-08 -0.336 0
5.38302e-09 -0.336 0
2.20478e-09 -0.336 0
8.85586e-10 -0.336 0
3.49135e-10 -0.336 0
1.35098e-10 -0.336 0
5.14064e-11 -0.336 0
1.92113e-11 -0.336 0
7.07171e-12 -0.336 0
2.58044e-12 -0.336 0
9.42429e-13 -0.336 0
3.13266e-13 -0.336 0
-0.00104607 -0.00900736 0
0.00128813 -0.00979875 0
0.0019262 -0.0142453 0
-0.000401461 -0.0192611 0
-0.00225681 -0.0120903 0
-0.00197936 -0.00779765 0
-0.000360509 -0.00296859 0
-0.00186786 -0.0112407 0
-0.000674879 -0.00110753 0
0.0041383 -0.0263279 0
-0.00112923 -0.0165008 0
-0.000303566 -0.018477 0
-0.00160828 -0.0391716 0
-0.00158359 -0.0226848 0
-0.00176243 -0.0397928 0
0.00276041 -0.0409924 0
0.00691394 -0.0471983 0
0.00128602 -0.0473476 0
0.00319728 -0.0541699 0
0.00782566 -0.060706 0
0.00542314 -0.064546 0
-0.00196459 -0.0674017 0
0.000875057 -0.0755722 0
0.00515489 -0.0784528 0
0.00330951 -0.0846028 0
0.00235128 -0.0930525 0
0.00429609 -0.0906744 0
0.00506088 -0.0954897 0
0.00169426 -0.109958 0
-0.00349835 -0.119845 0
-0.00387786 -0.124173 0
0.000428267 -0.128515 0
0.00189172 -0.136491 0
-0.000560889 -0.148124 0
-0.00136724 -0.159591 0
0.000443448 -0.167021 0
0.0017597 -0.171923 0
0.00189155 -0.178882 0
0.0018886 -0.18648 0
0.00177113 -0.192462 0
0.00138661 -0.198107 0
0.00162852 -0.201951 0
0.00305317 -0.204233 0
0.00482702 -0.205653 0
0.00559644 -0.206949 0
0.00479359 -0.209331 0
0.00280893 -0.213932 0
0.000378635 -0.22086 0
-0.00187146 -0.229341 0
-0.0035119 -0.238674 0
-0.00428091 -0.248629 0
-0.00411918 -0.259031 0
-0.00320782 -0.269359 0
-0.00188579 -0.278945 0
-0.000485248 -0.287448 0
0.000781878 -0.295025 0
0.00184553 -0.302072 0
0.00273175 -0.308832 0
0.00348743 -0.31523 0
0.00412928 -0.320966 0
0.00463609 -0.325733 0
0.00496671 -0.329382 0
0.00508364 -0.331953 0
0.00497082 -0.333631 0
0.00464217 -0.334651 0
0.00414046 -0.335237 0
0.00352829 -0.335559 0
0.00287465 -0.335735 0
0.00224165 -0.335833 0
0.00167525 -0.335891 0
0.0012016 -0.335928 0
0.000828481 -0.335952 0
0.000549961 -0.335969 0
0.00035203 -0.33598 0
0.000217608 -0.335988 0
0.000130087 -0.335993 0
7.53079e-05 -0.335996 0
4.22711e-05 -0.335998 0
2.30334e-05 -0.335999 0
1.21974e-05 -0.335999 0
6.28386e-06 -0.336 0
3.15256e-06 -0.336 0
1.54163e-06 -0.336 0
7.35449e-07 -0.336 0
3.42562e-07 -0.336 0
1.55911e-07 -0.336 0
6.93873e-08 -0.336 0
3.02169e-08 -0.336 0
1.28846e-08 -0.336 0
5.38272e-09 -0.336 0
2.20462e-09 -0.336 0
8.85628e-10 -0.336 0
3.49132e-10 -0.336 0
1.35108e-10 -0.336 0
5.14082e-11 -0.336 0
1.92291e-11 -0.336 0
7.05886e-12 -0.336 0
2.61695e-12 -0.336 0
9.3504e-13 -0.336 0
3.10296e-13 -0.336 0
-0.0039243 0.00909676 0
-0.00070369 0.0209671 0
-0.000105997 0.0183593 0
-0.00495296 0.0236778 0
7.97233e-05 0.0266213 0
0.00157374 0.0135595 0
9.99541e-05 0.0116698 0
-0.00333175 0.00708532 0
-0.00613519 0.0260437 0
0.00851838 0.00785423 0
0.00332333 -0.0050619 0
-0.00302709 0.000663727 0
0.00805575 -0.0149517 0
0.00309049 -0.0208343 0
0.0021981 -0.036317 0
0.00546251 -0.0459004 0
0.00429755 -0.0508668 0
-0.00140523 -0.0523573 0
0.000983221 -0.0618179 0
0.00903139 -0.0536544 0
0.00698489 -0.064072 0
0.00122844 -0.0731688 0
0.00498342 -0.0775289 0
0.00511853 -0.081723 0
0.00198852 -0.0837553 0
0.00216986 -0.0860611 0