<?xml version='1.0' encoding='UTF-8'?>
<VTKFile byte_order='LittleEndian' version='0.1' type = 'UnstructuredGrid'>
<UnstructuredGrid>
<FieldData>
<DataArray type='Float64' Name='Time' NumberOfComponents='1' NumberOfTuples='1' format='ascii'>
0.36
</DataArray>
</FieldData>
<Piece NumberOfCells='808' NumberOfPoints='808'>
<Points>
<DataArray NumberOfComponents='3' type='Float64' Name='position' format='ascii'>
0 0 0
0 0.025 0
0 0.05 0
0 0.075 0
0 0.1 0
0 0.125 0
0 0.15 0
0 0.175 0
0.025 0 0
0.05 0 0
0.075 0 0
0.1 0 0
0.125 0 0
0.15 0 0
0.175 0 0
0.2 0 0
0.225 0 0
0.25 0 0
0.275 0 0
0.3 0 0
0.325 0 0
0.35 0 0
0.375718 -0.00540795 0
0.400699 -0.00791012 0
0.42564 -0.00954748 0
0.45054 -0.0106808 0
0.475446 -0.0114665 0
0.500353 -0.012038 0
0.525253 -0.0124411 0
0.550159 -0.0126822 0
0.575089 -0.0127974 0
0.600044 -0.0128402 0
0.62502 -0.0128519 0
0.650008 -0.0128536 0
0.675003 -0.0128531 0
0.700001 -0.0128526 0
0.725 -0.0128524 0
0.75 -0.0128523 0
0.775 -0.0128522 0
0.8 -0.0128522 0
0.825 -0.0128522 0
0.85 -0.0128522 0
0.875 -0.0128522 0
0.9 -0.0128522 0
0.925 -0.0128522 0
0.95 -0.0128522 0
0.975 -0.0128522 0
1 -0.0128522 0
1.025 -0.0128522 0
1.05 -0.0128522 0
1.075 -0.0128522 0
1.1 -0.0128522 0
1.125 -0.0128522 0
1.15 -0.0128522 0
1.175 -0.0128522 0
1.2 -0.0128522 0
1.225 -0.0128522 0
1.25 -0.0128522 0
1.275 -0.0128522 0
1.3 -0.0128522 0
1.325 -0.0128522 0
1.35 -0.0128522 0
1.375 -0.0128522 0
1.4 -0.0128522 0
1.425 -0.0128522 0
1.45 -0.0128522 0
1.475 -0.0128522 0
1.5 -0.0128522 0
1.525 -0.0128522 0
1.55 -0.0128522 0
1.575 -0.0128522 0
1.6 -0.0128522 0
1.625 -0.0128522 0
1.65 -0.0128522 0
1.675 -0.0128522 0
1.7 -0.0128522 0
1.725 -0.0128522 0
1.75 -0.0128522 0
1.775 -0.0128522 0
1.8 -0.0128522 0
1.825 -0.0128522 0
1.85 -0.0128522 0
1.875 -0.0128522 0
1.9 -0.0128522 0
1.925 -0.0128522 0
1.95 -0.0128522 0
1.975 -0.0128522 0
2 -0.0128522 0
2.025 -0.0128522 0
2.05 -0.0128522 0
2.075 -0.0128522 0
2.1 -0.0128522 0
2.125 -0.0128522 0
2.15 -0.0128522 0
2.175 -0.0128522 0
2.2 -0.0128522 0
2.225 -0.0128522 0
2.25 -0.0128522 0
2.275 -0.0128522 0
2.3 -0.0128522 0
2.325 -0.0128522 0
2.35 -0.0128522 0
2.375 -0.0128522 0
2.4 -0.0128522 0
2.425 -0.0128522 0
2.45 -0.0128522 0
2.475 -0.0128522 0
2.5 -0.0128522 0
0.0248653 0.0244689 0
0.0498165 0.0241266 0
0.0747926 0.0238632 0
0.0997932 0.0236168 0
0.12481 0.0234095 0
0.149828 0.0232546 0
0.174852 0.0230991 0
0.199893 0.0229346 0
0.224944 0.0227862 0
0.249998 0.022656 0
0.275054 0.0225085 0
0.300127 0.0222785 0
0.325267 0.0218195 0
0.35056 0.0207366 0
0.375794 0.018572 0
0.400754 0.0166983 0
0.42567 0.0152904 0
0.450562 0.0142531 0
0.475458 0.0135071 0
0.500358 0.0129628 0
0.525259 0.0125782 0
0.550168 0.0123408 0
0.575097 0.0122198 0
0.60005 0.0121696 0
0.625023 0.0121528 0
0.65001 0.0121484 0
0.675004 0.0121476 0
0.700001 0.0121477 0
0.725 0.0121477 0
0.75 0.0121478 0
0.775 0.0121478 0
0.8 0.0121478 0
0.825 0.0121478 0
0.85 0.0121478 0
0.875 0.0121478 0
0.9 0.0121478 0
0.925 0.0121478 0
0.95 0.0121478 0
0.975 0.0121478 0
1 0.0121478 0
1.025 0.0121478 0
1.05 0.0121478 0
1.075 0.0121478 0
1.1 0.0121478 0
1.125 0.0121478 0
1.15 0.0121478 0
1.175 0.0121478 0
1.2 0.0121478 0
1.225 0.0121478 0
1.25 0.0121478 0
1.275 0.0121478 0
1.3 0.0121478 0
1.325 0.0121478 0
1.35 0.0121478 0
1.375 0.0121478 0
1.4 0.0121478 0
1.425 0.0121478 0
1.45 0.0121478 0
1.475 0.0121478 0
1.5 0.0121478 0
1.525 0.0121478 0
1.55 0.0121478 0
1.575 0.0121478 0
1.6 0.0121478 0
1.625 0.0121478 0
1.65 0.0121478 0
1.675 0.0121478 0
1.7 0.0121478 0
1.725 0.0121478 0
1.75 0.0121478 0
1.775 0.0121478 0
1.8 0.0121478 0
1.825 0.0121478 0
1.85 0.0121478 0
1.875 0.0121478 0
1.9 0.0121478 0
1.925 0.0121478 0
1.95 0.0121478 0
1.975 0.0121478 0
2 0.0121478 0
2.025 0.0121478 0
2.05 0.0121478 0
2.075 0.0121478 0
2.1 0.0121478 0
2.125 0.0121478 0
2.15 0.0121478 0
2.175 0.0121478 0
2.2 0.0121478 0
2.225 0.0121478 0
2.25 0.0121478 0
2.275 0.0121478 0
2.3 0.0121478 0
2.325 0.0121478 0
2.35 0.0121478 0
2.375 0.0121478 0
2.4 0.0121478 0
2.425 0.0121478 0
2.45 0.0121478 0
2.475 0.0121478 0
2.5 0.0121478 0
0.0248176 0.0491559 0
0.0497368 0.0485899 0
0.0746941 0.0481429 0
0.0996911 0.0477127 0
0.12471 0.0473566 0
0.149738 0.0470845 0
0.174785 0.0468085 0
0.199858 0.0465225 0
0.224945 0.046271 0
0.250034 0.0460567 0
0.275129 0.0458246 0
0.300247 0.0454848 0
0.325414 0.0449166 0
0.350634 0.0439471 0
0.375771 0.042541 0
0.400757 0.0411641 0
0.425677 0.0400037 0
0.450569 0.0390981 0
0.475461 0.0384236 0
0.50036 0.0379228 0
0.525262 0.037567 0
0.550172 0.0373442 0
0.575101 0.0372267 0
0.600053 0.0371749 0
0.625025 0.0371558 0
0.650011 0.0371498 0
0.675004 0.0371482 0
0.700002 0.0371479 0
0.725001 0.0371478 0
0.75 0.0371478 0
0.775 0.0371478 0
0.8 0.0371478 0
0.825 0.0371478 0
0.85 0.0371478 0
0.875 0.0371478 0
0.9 0.0371478 0
0.925 0.0371478 0
0.95 0.0371478 0
0.975 0.0371478 0
1 0.0371478 0
1.025 0.0371478 0
1.05 0.0371478 0
1.075 0.0371478 0
1.1 0.0371478 0
1.125 0.0371478 0
1.15 0.0371478 0
1.175 0.0371478 0
1.2 0.0371478 0
1.225 0.0371478 0
1.25 0.0371478 0
1.275 0.0371478 0
1.3 0.0371478 0
1.325 0.0371478 0
1.35 0.0371478 0
1.375 0.0371478 0
1.4 0.0371478 0
1.425 0.0371478 0
1.45 0.0371478 0
1.475 0.0371478 0
1.5 0.0371478 0
1.525 0.0371478 0
1.55 0.0371478 0
1.575 0.0371478 0
1.6 0.0371478 0
1.625 0.0371478 0
1.65 0.0371478 0
1.675 0.0371478 0
1.7 0.0371478 0
1.725 0.0371478 0
1.75 0.0371478 0
1.775 0.0371478 0
1.8 0.0371478 0
1.825 0.0371478 0
1.85 0.0371478 0
1.875 0.0371478 0
1.9 0.0371478 0
1.925 0.0371478 0
1.95 0.0371478 0
1.975 0.0371478 0
2 0.0371478 0
2.025 0.0371478 0
2.05 0.0371478 0
2.075 0.0371478 0
2.1 0.0371478 0
2.125 0.0371478 0
2.15 0.0371478 0
2.175 0.0371478 0
2.2 0.0371478 0
2.225 0.0371478 0
2.25 0.0371478 0
2.275 0.0371478 0
2.3 0.0371478 0
2.325 0.0371478 0
2.35 0.0371478 0
2.375 0.0371478 0
2.4 0.0371478 0
2.425 0.0371478 0
2.45 0.0371478 0
2.475 0.0371478 0
2.5 0.0371478 0
0.024801 0.0739322 0
0.0497044 0.0731924 0
0.0746552 0.072567 0
0.0996436 0.0719697 0
0.124654 0.0714815 0
0.14969 0.0710907 0
0.174762 0.070692 0
0.199865 0.0702937 0
0.224975 0.0699549 0
0.250082 0.0696757 0
0.275192 0.069392 0
0.30032 0.0690109 0
0.325468 0.0684433 0
0.350617 0.0676344 0
0.375707 0.0666184 0
0.400705 0.0655765 0
0.42564 0.0646431 0
0.450545 0.0638847 0
0.475446 0.0632963 0
0.50035 0.0628493 0
0.525255 0.0625314 0
0.550168 0.0623322 0
0.575099 0.0622255 0
0.600052 0.0621766 0
0.625025 0.0621573 0
0.650011 0.0621507 0
0.675004 0.0621486 0
0.700002 0.062148 0
0.725001 0.0621479 0
0.75 0.0621478 0
0.775 0.0621478 0
0.8 0.0621478 0
0.825 0.0621478 0
0.85 0.0621478 0
0.875 0.0621478 0
0.9 0.0621478 0
0.925 0.0621478 0
0.95 0.0621478 0
0.975 0.0621478 0
1 0.0621478 0
1.025 0.0621478 0
1.05 0.0621478 0
1.075 0.0621478 0
1.1 0.0621478 0
1.125 0.0621478 0
1.15 0.0621478 0
1.175 0.0621478 0
1.2 0.0621478 0
1.225 0.0621478 0
1.25 0.0621478 0
1.275 0.0621478 0
1.3 0.0621478 0
1.325 0.0621478 0
1.35 0.0621478 0
1.375 0.0621478 0
1.4 0.0621478 0
1.425 0.0621478 0
1.45 0.0621478 0
1.475 0.0621478 0
1.5 0.0621478 0
1.525 0.0621478 0
1.55 0.0621478 0
1.575 0.0621478 0
1.6 0.0621478 0
1.625 0.0621478 0
1.65 0.0621478 0
1.675 0.0621478 0
1.7 0.0621478 0
1.725 0.0621478 0
1.75 0.0621478 0
1.775 0.0621478 0
1.8 0.0621478 0
1.825 0.0621478 0
1.85 0.0621478 0
1.875 0.0621478 0
1.9 0.0621478 0
1.925 0.0621478 0
1.95 0.0621478 0
1.975 0.0621478 0
2 0.0621478 0
2.025 0.0621478 0
2.05 0.0621478 0
2.075 0.0621478 0
2.1 0.0621478 0
2.125 0.0621478 0
2.15 0.0621478 0
2.175 0.0621478 0
2.2 0.0621478 0
2.225 0.0621478 0
2.25 0.0621478 0
2.275 0.0621478 0
2.3 0.0621478 0
2.325 0.0621478 0
2.35 0.0621478 0
2.375 0.0621478 0
2.4 0.0621478 0
2.425 0.0621478 0
2.45 0.0621478 0
2.475 0.0621478 0
2.5 0.0621478 0
0.0248075 0.0987486 0
0.0497117 0.0978481 0
0.0746578 0.0970666 0
0.0996319 0.096345 0
0.124633 0.095748 0
0.149679 0.0952386 0
0.174775 0.0947205 0
0.199897 0.0942257 0
0.225018 0.0938209 0
0.250126 0.0934982 0
0.27523 0.0931887 0
0.300342 0.0928091 0
0.325459 0.0922945 0
0.350561 0.091624 0
0.37562 0.0908375 0
0.40062 0.0900272 0
0.425572 0.0892832 0
0.450498 0.0886541 0
0.475414 0.0881465 0
0.500326 0.0877562 0
0.525235 0.0874814 0
0.550153 0.0873107 0
0.575089 0.0872188 0
0.600047 0.0871756 0
0.625022 0.0871577 0
0.650009 0.0871511 0
0.675004 0.0871488 0
0.700001 0.0871481 0
0.725 0.0871479 0
0.75 0.0871478 0
0.775 0.0871478 0
0.8 0.0871478 0
0.825 0.0871478 0
0.85 0.0871478 0
0.875 0.0871478 0
0.9 0.0871478 0
0.925 0.0871478 0
0.95 0.0871478 0
0.975 0.0871478 0
1 0.0871478 0
1.025 0.0871478 0
1.05 0.0871478 0
1.075 0.0871478 0
1.1 0.0871478 0
1.125 0.0871478 0
1.15 0.0871478 0
1.175 0.0871478 0
1.2 0.0871478 0
1.225 0.0871478 0
1.25 0.0871478 0
1.275 0.0871478 0
1.3 0.0871478 0
1.325 0.0871478 0
1.35 0.0871478 0
1.375 0.0871478 0
1.4 0.0871478 0
1.425 0.0871478 0
1.45 0.0871478 0
1.475 0.0871478 0
1.5 0.0871478 0
1.525 0.0871478 0
1.55 0.0871478 0
1.575 0.0871478 0
1.6 0.0871478 0
1.625 0.0871478 0
1.65 0.0871478 0
1.675 0.0871478 0
1.7 0.0871478 0
1.725 0.0871478 0
1.75 0.0871478 0
1.775 0.0871478 0
1.8 0.0871478 0
1.825 0.0871478 0
1.85 0.0871478 0
1.875 0.0871478 0
1.9 0.0871478 0
1.925 0.0871478 0
1.95 0.0871478 0
1.975 0.0871478 0
2 0.0871478 0
2.025 0.0871478 0
2.05 0.0871478 0
2.075 0.0871478 0
2.1 0.0871478 0
2.125 0.0871478 0
2.15 0.0871478 0
2.175 0.0871478 0
2.2 0.0871478 0
2.225 0.0871478 0
2.25 0.0871478 0
2.275 0.0871478 0
2.3 0.0871478 0
2.325 0.0871478 0
2.35 0.0871478 0
2.375 0.0871478 0
2.4 0.0871478 0
2.425 0.0871478 0
2.45 0.0871478 0
2.475 0.0871478 0
2.5 0.0871478 0
0.0248269 0.123611 0
0.0497306 0.122598 0
0.0746678 0.121712 0
0.0996366 0.120912 0
0.124641 0.12023 0
0.149699 0.11961 0
0.174809 0.118983 0
0.199938 0.118412 0
0.225058 0.117965 0
0.25016 0.117618 0
0.27525 0.117297 0
0.300338 0.116928 0
0.325425 0.116464 0
0.350496 0.115897 0
0.375536 0.115255 0
0.400536 0.114597 0
0.425502 0.11398 0
0.450444 0.113441 0
0.47537 0.112999 0
0.500287 0.112661 0
0.525203 0.112429 0
0.550129 0.112286 0
0.575074 0.11221 0
0.600038 0.112173 0
0.625018 0.112157 0
0.650008 0.112151 0
0.675003 0.112149 0
0.700001 0.112148 0
0.725 0.112148 0
0.75 0.112148 0
0.775 0.112148 0
0.8 0.112148 0
0.825 0.112148 0
0.85 0.112148 0
0.875 0.112148 0
0.9 0.112148 0
0.925 0.112148 0
0.95 0.112148 0
0.975 0.112148 0
1 0.112148 0
1.025 0.112148 0
1.05 0.112148 0
1.075 0.112148 0
1.1 0.112148 0
1.125 0.112148 0
1.15 0.112148 0
1.175 0.112148 0
1.2 0.112148 0
1.225 0.112148 0
1.25 0.112148 0
1.275 0.112148 0
1.3 0.112148 0
1.325 0.112148 0
1.35 0.112148 0
1.375 0.112148 0
1.4 0.112148 0
1.425 0.112148 0
1.45 0.112148 0
1.475 0.112148 0
1.5 0.112148 0
1.525 0.112148 0
1.55 0.112148 0
1.575 0.112148 0
1.6 0.112148 0
1.625 0.112148 0
1.65 0.112148 0
1.675 0.112148 0
1.7 0.112148 0
1.725 0.112148 0
1.75 0.112148 0
1.775 0.112148 0
1.8 0.112148 0
1.825 0.112148 0
1.85 0.112148 0
1.875 0.112148 0
1.9 0.112148 0
1.925 0.112148 0
1.95 0.112148 0
1.975 0.112148 0
2 0.112148 0
2.025 0.112148 0
2.05 0.112148 0
2.075 0.112148 0
2.1 0.112148 0
2.125 0.112148 0
2.15 0.112148 0
2.175 0.112148 0
2.2 0.112148 0
2.225 0.112148 0
2.25 0.112148 0
2.275 0.112148 0
2.3 0.112148 0
2.325 0.112148 0
2.35 0.112148 0
2.375 0.112148 0
2.4 0.112148 0
2.425 0.112148 0
2.45 0.112148 0
2.475 0.112148 0
2.5 0.112148 0
0.0248325 0.148558 0
0.0497331 0.147507 0
0.0746677 0.146564 0
0.0996481 0.145711 0
0.124666 0.144973 0
0.149734 0.144263 0
0.174849 0.143548 0
0.199976 0.142924 0
0.225088 0.142456 0
0.25018 0.142103 0
0.275259 0.141779 0
0.300333 0.141416 0
0.325401 0.140978 0
0.350454 0.140463 0
0.375482 0.139894 0
0.40048 0.139312 0
0.425449 0.138761 0
0.450395 0.138275 0
0.475323 0.137879 0
0.500243 0.137584 0
0.525166 0.137385 0
0.550103 0.137265 0
0.575057 0.137201 0
0.600029 0.13717 0
0.625013 0.137156 0
0.650006 0.137151 0
0.675002 0.137149 0
0.700001 0.137148 0
0.725 0.137148 0
0.75 0.137148 0
0.775 0.137148 0
0.8 0.137148 0
0.825 0.137148 0
0.85 0.137148 0
0.875 0.137148 0
0.9 0.137148 0
0.925 0.137148 0
0.95 0.137148 0
0.975 0.137148 0
1 0.137148 0
1.025 0.137148 0
1.05 0.137148 0
1.075 0.137148 0
1.1 0.137148 0
1.125 0.137148 0
1.15 0.137148 0
1.175 0.137148 0
1.2 0.137148 0
1.225 0.137148 0
1.25 0.137148 0
1.275 0.137148 0
1.3 0.137148 0
1.325 0.137148 0
1.35 0.137148 0
1.375 0.137148 0
1.4 0.137148 0
1.425 0.137148 0
1.45 0.137148 0
1.475 0.137148 0
1.5 0.137148 0
1.525 0.137148 0
1.55 0.137148 0
1.575 0.137148 0
1.6 0.137148 0
1.625 0.137148 0
1.65 0.137148 0
1.675 0.137148 0
1.7 0.137148 0
1.725 0.137148 0
1.75 0.137148 0
1.775 0.137148 0
1.8 0.137148 0
1.825 0.137148 0
1.85 0.137148 0
1.875 0.137148 0
1.9 0.137148 0
1.925 0.137148 0
1.95 0.137148 0
1.975 0.137148 0
2 0.137148 0
2.025 0.137148 0
2.05 0.137148 0
2.075 0.137148 0
2.1 0.137148 0
2.125 0.137148 0
2.15 0.137148 0
2.175 0.137148 0
2.2 0.137148 0
2.225 0.137148 0
2.25 0.137148 0
2.275 0.137148 0
2.3 0.137148 0
2.325 0.137148 0
2.35 0.137148 0
2.375 0.137148 0
2.4 0.137148 0
2.425 0.137148 0
2.45 0.137148 0
2.475 0.137148 0
2.5 0.137148 0
0.0248186 0.173561 0
0.0497177 0.172517 0
0.0746578 0.171544 0
0.0996591 0.170647 0
0.124688 0.169884 0
0.149762 0.169115 0
0.17488 0.168335 0
0.200004 0.167683 0
0.225106 0.167215 0
0.250189 0.166868 0
0.275263 0.166548 0
0.300333 0.166187 0
0.325394 0.165757 0
0.350439 0.165259 0
0.375461 0.164716 0
0.400455 0.164164 0
0.42542 0.16364 0
0.450361 0.163182 0
0.475286 0.162812 0
0.500206 0.162541 0
0.525135 0.162362 0
0.55008 0.162255 0
0.575043 0.162198 0
0.600021 0.162169 0
0.62501 0.162156 0
0.650004 0.162151 0
0.675002 0.162149 0
0.700001 0.162148 0
0.725 0.162148 0
0.75 0.162148 0
0.775 0.162148 0
0.8 0.162148 0
0.825 0.162148 0
0.85 0.162148 0
0.875 0.162148 0
0.9 0.162148 0
0.925 0.162148 0
0.95 0.162148 0
0.975 0.162148 0
1 0.162148 0
1.025 0.162148 0
1.05 0.162148 0
1.075 0.162148 0
1.1 0.162148 0
1.125 0.162148 0
1.15 0.162148 0
1.175 0.162148 0
1.2 0.162148 0
1.225 0.162148 0
1.25 0.162148 0
1.275 0.162148 0
1.3 0.162148 0
1.325 0.162148 0
1.35 0.162148 0
1.375 0.162148 0
1.4 0.162148 0
1.425 0.162148 0
1.45 0.162148 0
1.475 0.162148 0
1.5 0.162148 0
1.525 0.162148 0
1.55 0.162148 0
1.575 0.162148 0
1.6 0.162148 0
1.625 0.162148 0
1.65 0.162148 0
1.675 0.162148 0
1.7 0.162148 0
1.725 0.162148 0
1.75 0.162148 0
1.775 0.162148 0
1.8 0.162148 0
1.825 0.162148 0
1.85 0.162148 0
1.875 0.162148 0
1.9 0.162148 0
1.925 0.162148 0
1.95 0.162148 0
1.975 0.162148 0
2 0.162148 0
2.025 0.162148 0
2.05 0.162148 0
2.075 0.162148 0
2.1 0.162148 0
2.125 0.162148 0
2.15 0.162148 0
2.175 0.162148 0
2.2 0.162148 0
2.225 0.162148 0
2.25 0.162148 0
2.275 0.162148 0
2.3 0.162148 0
2.325 0.162148 0
2.35 0.162148 0
2.375 0.162148 0
2.4 0.162148 0
2.425 0.162148 0
2.45 0.162148 0
2.475 0.162148 0
2.5 0.162148 0
</DataArray>
</Points>
<PointData>
<DataArray NumberOfComponents='1' type='Int32' Name='Particle Type' format='ascii'>
0
0
0
0
0
0
0
0
0
0
0
0
0
0
0
0
0
0
0
0
0
0
1
1
1
1
1
1
1
1
1
1
1
1
1
1
1
1
1
1
1
1
1
1
1
1
1
1
1
1
1
1
1
1
1
1
1
1
1
1
1
1
1
1
1
1
1
1
1
1
1
1
1
1
1
1
1
1
1
1
1
1
1
1
1
1
1
1
1
1
1
1
1
1
1
1
1
1
1
1
1
1
1
1
1
1
1
1
1
1
1
1
1
1
1
1
1
1
1
1
1
1
1
1
1
1
1
1
1
1
1
1
1
1
1
1
1
1
1
1
1
1
1
1
1
1
1
1
1
1
1
1
1
1
1
1
1
1
1
1
1
1
1
1
1
1
1
1
1
1
1
1
1
1
1
1
1
1
1
1
1
1
1
1
1
1
1
1
1
1
1
1
1
1
1
1
1
1
1
1
1
1
1
1
1
1
1
1
1
1
1
1
1
1
1
1
1
1
1
1
1
1
1
1
1
1
1
1
1
1
1
1
1
1
1
1
1
1
1
1
1
1
1
1
1
1
1
1
1
1
1
1
1
1
1
1
1
1
1
1
1
1
1
1
1
1
1
1
1
1
1
1
1
1
1
1
1
1
1
1
1
1
1
1
1
1
1
1
1
1
1
1
1
1
1
1
1
1
1
1
1
1
1
1
1
1
1
1
1
1
1
1
1
1
1
1
1
1
1
1
1
1
1
1
1
1
1
1
1
1
1
1
1
1
1
1
1
1
1
1
1
1
1
1
1
1
1
1
1
1
1
1
1
1
1
1
1
1
1
1
1
1
1
1
1
1
1
1
1
1
1
1
1
1
1
1
1
1
1
1
1
1
1
1
1
1
1
1
1
1
1
1
1
1
1
1
1
1
1
1
1
1
1
1
1
1
1
1
1
1
1
1
1
1
1
1
1
1
1
1
1
1
1
1
1
1
1
1
1
1
1
1
1
1
1
1
1
1
1
1
1
1
1
1
1
1
1
1
1
1
1
1
1
1
1
1
1
1
1
1
1
1
1
1
1
1
1
1
1
1
1
1
1
1
1
1
1
1
1
1
1
1
1
1
1
1
1
1
1
1
1
1
1
1
1
1
1
1
1
1
1
1
1
1
1
1
1
1
1
1
1
1
1
1
1
1
1
1
1
1
1
1
1
1
1
1
1
1
1
1
1
1
1
1
1
1
1
1
1
1
1
1
1
1
1
1
1
1
1
1
1
1
1
1
1
1
1
1
1
1
1
1
1
1
1
1
1
1
1
1
1
1
1
1
1
1
1
1
1
1
1
1
1
1
1
1
1
1
1
1
1
1
1
1
1
1
1
1
1
1
1
1
1
1
1
1
1
1
1
1
1
1
1
1
1
1
1
1
1
1
1
1
1
1
1
1
1
1
1
1
1
1
1
1
1
1
1
1
1
1
1
1
1
1
1
1
1
1
1
1
1
1
1
1
1
1
1
1
1
1
1
1
1
1
1
1
1
1
1
1
1
1
1
1
1
1
1
1
1
1
1
1
1
1
1
1
1
1
1
1
1
1
1
1
1
1
1
1
1
1
1
1
1
1
1
1
1
1
1
1
1
1
1
1
1
1
1
1
1
1
1
1
1
1
1
1
1
1
1
1
1
1
1
1
1
1
1
1
1
1
1
1
1
1
1
1
1
1
1
1
1
1
1
1
1
1
1
1
1
1
1
1
1
1
1
1
1
1
1
1
1
1
1
1
1
1
1
1
1
1
1
1
1
1
1
1
1
1
1
1
1
1
1
1
1
1
1
1
1
1
1
1
1
1
1
1
1
1
</DataArray>
<DataArray NumberOfComponents='3' type='Float64' Name='Velocity' format='ascii'>
0 0 0
0 0 0
0 0 0
0 0 0
0 0 0
0 0 0
0 0 0
0 0 0
0 0 0
0 0 0
0 0 0
0 0 0
0 0 0
0 0 0
0 0 0
0 0 0
0 0 0
0 0 0
0 0 0
0 0 0
0 0 0
0 0 0
0.00414998 -0.0226625 0
0.00427387 -0.0344947 0
0.00463888 -0.0425851 0
0.00435874 -0.0498231 0
0.00374505 -0.0551967 0
0.00369244 -0.0590823 0
0.00358831 -0.0631903 0
0.00295467 -0.067124 0
0.00203236 -0.0698374 0
0.00119936 -0.0711973 0
0.000623675 -0.0716973 0
0.000291459 -0.0718208 0
0.000124103 -0.0718284 0
4.86278e-05 -0.071816 0
1.76699e-05 -0.0718069 0
5.99257e-06 -0.0718026 0
1.90734e-06 -0.0718009 0
5.7255e-07 -0.0718003 0
1.62802e-07 -0.0718001 0
4.40193e-08 -0.0718 0
1.13565e-08 -0.0718 0
2.80401e-09 -0.0718 0
6.64351e-10 -0.0718 0
1.51388e-10 -0.0718 0
3.32699e-11 -0.0718 0
7.07477e-12 -0.0718 0
1.46492e-12 -0.0718 0
2.87136e-13 -0.0718 0
4.08953e-14 -0.0718 0
3.9989e-15 -0.0718 0
2.41677e-16 -0.0718 0
2.48704e-18 -0.0718 0
-8.47072e-20 -0.0718 0
-1.42454e-20 -0.0718 0
9.66395e-31 -0.0718 0
-8.16621e-34 -0.0718 0
-9.79766e-31 -0.0718 0
8.44584e-31 -0.0718 0
-8.37738e-31 -0.0718 0
9.66569e-31 -0.0718 0
-7.7106e-33 -0.0718 0
-9.6198e-31 -0.0718 0
8.382e-31 -0.0718 0
-8.55023e-31 -0.0718 0
9.7485e-31 -0.0718 0
-1.40132e-32 -0.0718 0
-9.7276e-31 -0.0718 0
8.50903e-31 -0.0718 0
-8.55679e-31 -0.0718 0
9.66064e-31 -0.0718 0
-1.4908e-33 -0.0718 0
-9.6198e-31 -0.0718 0
8.382e-31 -0.0718 0
-8.55023e-31 -0.0718 0
9.7485e-31 -0.0718 0
-1.40132e-32 -0.0718 0
-9.72767e-31 -0.0718 0
8.48026e-31 -0.0718 0
-8.51884e-31 -0.0718 0
9.66395e-31 -0.0718 0
-8.16621e-34 -0.0718 0
-9.79766e-31 -0.0718 0
8.44584e-31 -0.0718 0
-8.37118e-31 -0.0718 0
9.86743e-31 -0.0718 0
1.09587e-31 -0.0718 0
-2.45514e-31 -0.0718 0
-1.95974e-30 -0.0718 0
1.96123e-30 -0.0718 0
2.67491e-31 -0.0718 0
-1.46384e-32 -0.0718 0
-2.64522e-31 -0.0718 0
-1.94491e-30 -0.0718 0
-3.98824e-22 -0.0718 0
-1.01937e-20 -0.0718 0
-3.24741e-19 -0.0718 0
9.57616e-19 -0.0718 0
-7.23745e-18 -0.0718 0
-6.00048e-18 -0.0718 0
4.01607e-18 -0.0718 0
2.43722e-18 -0.0718 0
-2.01363e-18 -0.0718 0
8.44647e-18 -0.0718 0
4.74429e-17 -0.0718 0
4.29945e-17 -0.0718 0
-1.2903e-16 -0.0718 0
-0.000221955 0.000243119 0
-0.000334448 7.562e-05 0
-0.000533428 -0.000173397 0
-0.000908438 0.00020007 0
-0.00084471 -0.00107292 0
-0.000672592 -0.00169698 0
-0.00093686 -0.00146314 0
-0.00128656 -0.0019786 0
-0.00121908 -0.00339516 0
-0.000749852 -0.0050619 0
-0.000170389 -0.00669211 0
0.000464388 -0.00830547 0
0.00145552 -0.0109036 0
0.00320736 -0.0166552 0
0.00469117 -0.0265942 0
0.00466859 -0.0362861 0
0.00469765 -0.0436225 0
0.00444596 -0.0501639 0
0.00395662 -0.0554129 0
0.00371336 -0.0594173 0
0.00348002 -0.0633101 0
0.00291116 -0.0669428 0
0.00208701 -0.0695509 0
0.00128909 -0.0709666 0
0.000698368 -0.0715605 0
0.000337752 -0.0717537 0
0.00014796 -0.0717996 0
5.93879e-05 -0.0718048 0
2.2039e-05 -0.0718029 0
7.61766e-06 -0.0718012 0
2.46743e-06 -0.0718004 0
7.52891e-07 -0.0718001 0
2.1739e-07 -0.0718 0
5.96323e-08 -0.0718 0
1.5594e-08 -0.0718 0
3.89935e-09 -0.0718 0
9.34926e-10 -0.0718 0
2.15425e-10 -0.0718 0
4.78165e-11 -0.0718 0
1.02275e-11 -0.0718 0
2.12829e-12 -0.0718 0
4.38798e-13 -0.0718 0
7.0474e-14 -0.0718 0
6.99813e-15 -0.0718 0
4.12587e-16 -0.0718 0
4.23226e-18 -0.0718 0
-8.68326e-19 -0.0718 0
-9.88488e-20 -0.0718 0
-1.695e-21 -0.0718 0
1.14637e-33 -0.0718 0
-2.48259e-30 -0.0718 0
2.15389e-30 -0.0718 0
-2.16285e-30 -0.0718 0
2.48421e-30 -0.0718 0
1.70093e-33 -0.0718 0
-2.48564e-30 -0.0718 0
2.16307e-30 -0.0718 0
-2.15283e-30 -0.0718 0
2.48118e-30 -0.0718 0
-9.48649e-33 -0.0718 0
-2.4785e-30 -0.0718 0
2.16663e-30 -0.0718 0
-2.16023e-30 -0.0718 0
2.47314e-30 -0.0718 0
8.59056e-33 -0.0718 0
-2.48536e-30 -0.0718 0
2.16307e-30 -0.0718 0
-2.15283e-30 -0.0718 0
2.48118e-30 -0.0718 0
-9.48649e-33 -0.0718 0
-2.47853e-30 -0.0718 0
2.16753e-30 -0.0718 0
-2.15199e-30 -0.0718 0
2.48431e-30 -0.0718 0
1.14637e-33 -0.0718 0
-2.48259e-30 -0.0718 0
2.15389e-30 -0.0718 0
-2.16208e-30 -0.0718 0
2.51565e-30 -0.0718 0
2.63553e-31 -0.0718 0
-6.26343e-31 -0.0718 0
-4.95926e-30 -0.0718 0
4.96988e-30 -0.0718 0
6.30561e-31 -0.0718 0
1.02042e-32 -0.0718 0
-6.4867e-31 -0.0718 0
-4.96268e-30 -0.0718 0
1.695e-21 -0.0718 0
8.49952e-20 -0.0718 0
6.41755e-20 -0.0718 0
-1.51126e-18 -0.0718 0
-1.27364e-17 -0.0718 0
-1.26652e-17 -0.0718 0
-8.13749e-18 -0.0718 0
2.48172e-18 -0.0718 0
2.19256e-17 -0.0718 0
2.23893e-17 -0.0718 0
5.38258e-17 -0.0718 0
4.40862e-17 -0.0718 0
-2.18999e-16 -0.0718 0
-0.000270284 0.000244946 0
-0.000417501 -0.000819602 0
-0.000891754 -0.000628589 0
-0.00132914 -8.54286e-06 0
-0.00119372 -0.00215172 0
-0.00118213 -0.00296537 0
-0.00167166 -0.00257063 0
-0.00203306 -0.00367103 0
-0.00171924 -0.00628501 0
-0.000840693 -0.00916768 0
0.000160436 -0.0119079 0
0.00108958 -0.0145963 0
0.00227826 -0.0177975 0
0.00373681 -0.0233177 0
0.00467688 -0.0309043 0
0.00478428 -0.0383761 0
0.00479198 -0.0447511 0
0.00454138 -0.0509278 0
0.00405113 -0.0559297 0
0.00371676 -0.0598748 0
0.00343397 -0.0636171 0
0.00290071 -0.0670134 0
0.00212444 -0.0694695 0
0.00134165 -0.0708552 0
0.000740496 -0.0714795 0
0.000363307 -0.0717093 0
0.000160901 -0.0717792 0
6.51404e-05 -0.0717966 0
2.4351e-05 -0.0717999 0
8.47313e-06 -0.0718002 0
2.76227e-06 -0.0718001 0
8.48257e-07 -0.0718 0
2.46495e-07 -0.0718 0
6.80473e-08 -0.0718 0
1.79067e-08 -0.0718 0
4.50529e-09 -0.0718 0
1.08665e-09 -0.0718 0
2.51834e-10 -0.0718 0
5.61993e-11 -0.0718 0
1.21064e-11 -0.0718 0
2.52973e-12 -0.0718 0
5.14659e-13 -0.0718 0
8.97155e-14 -0.0718 0
9.13827e-15 -0.0718 0
5.58619e-16 -0.0718 0
9.73882e-18 -0.0718 0
-5.22667e-19 -0.0718 0
-5.52476e-20 -0.0718 0
-6.81397e-22 -0.0718 0
1.89151e-33 -0.0718 0
-3.40964e-30 -0.0718 0
3.00031e-30 -0.0718 0
-2.99265e-30 -0.0718 0
3.41473e-30 -0.0718 0
3.18283e-33 -0.0718 0
-3.41499e-30 -0.0718 0
2.98258e-30 -0.0718 0
-2.97593e-30 -0.0718 0
3.39744e-30 -0.0718 0
-5.04617e-33 -0.0718 0
-3.40073e-30 -0.0718 0
2.99017e-30 -0.0718 0
-2.99372e-30 -0.0718 0
3.41301e-30 -0.0718 0
-1.92397e-34 -0.0718 0
-3.41511e-30 -0.0718 0
2.98258e-30 -0.0718 0
-2.97593e-30 -0.0718 0
3.39744e-30 -0.0718 0
-5.04617e-33 -0.0718 0
-3.40077e-30 -0.0718 0
2.98773e-30 -0.0718 0
-2.9836e-30 -0.0718 0
3.40116e-30 -0.0718 0
1.89151e-33 -0.0718 0
-3.40964e-30 -0.0718 0
3.00031e-30 -0.0718 0
-2.99291e-30 -0.0718 0
3.44302e-30 -0.0718 0
3.69102e-31 -0.0718 0
-8.14943e-31 -0.0718 0
-6.84084e-30 -0.0718 0
6.83486e-30 -0.0718 0
8.41978e-31 -0.0718 0
-3.19375e-33 -0.0718 0
-8.57004e-31 -0.0718 0
-6.84284e-30 -0.0718 0
9.80515e-22 -0.0718 0
5.60553e-20 -0.0718 0
-2.25605e-19 -0.0718 0
-4.22293e-18 -0.0718 0
-1.97131e-17 -0.0718 0
-2.56621e-17 -0.0718 0
-1.84588e-17 -0.0718 0
3.50242e-18 -0.0718 0
4.93249e-17 -0.0718 0
5.6827e-17 -0.0718 0
3.1421e-17 -0.0718 0
-4.67798e-19 -0.0718 0
-1.95972e-16 -0.0718 0
-0.000198869 0.00012259 0
-0.000636856 -0.00036846 0
-0.0011729 0.000881976 0
-0.00130258 0.00135757 0
-0.0012879 -0.00119968 0
-0.00171848 -0.0017883 0
-0.00234955 -0.00138778 0
-0.00246916 -0.00333035 0
-0.00181556 -0.00721678 0
-0.000635354 -0.0112037 0
0.000662899 -0.0147909 0
0.00177086 -0.0184103 0
0.00276528 -0.0223792 0
0.00380192 -0.0273118 0
0.00450275 -0.0334877 0
0.00478547 -0.0397728 0
0.00482939 -0.0460951 0
0.00447048 -0.0519419 0
0.00397921 -0.0565677 0
0.00369132 -0.0604395 0
0.00342363 -0.0641035 0
0.00288692 -0.0672921 0
0.00211039 -0.0695503 0
0.00133197 -0.0708375 0
0.000735348 -0.0714417 0
0.000361015 -0.0716818 0
0.000160021 -0.0717648 0
6.48539e-05 -0.0717903 0
2.42784e-05 -0.0717975 0
8.46375e-06 -0.0717994 0
2.76576e-06 -0.0717998 0
8.5175e-07 -0.0718 0
2.48318e-07 -0.0718 0
6.87968e-08 -0.0718 0
1.81732e-08 -0.0718 0
4.59053e-09 -0.0718 0
1.1117e-09 -0.0718 0
2.58672e-10 -0.0718 0
5.7976e-11 -0.0718 0
1.25307e-11 -0.0718 0
2.63726e-12 -0.0718 0
5.39029e-13 -0.0718 0
9.42492e-14 -0.0718 0
9.73639e-15 -0.0718 0
6.09882e-16 -0.0718 0
1.31403e-17 -0.0718 0
-3.89674e-20 -0.0718 0
-7.59964e-21 -0.0718 0
1.63249e-31 -0.0718 0
-1.05492e-32 -0.0718 0
-1.57196e-31 -0.0718 0
1.29807e-31 -0.0718 0
-1.43893e-31 -0.0718 0
1.68057e-31 -0.0718 0
-3.60955e-33 -0.0718 0
-1.65357e-31 -0.0718 0
1.3451e-31 -0.0718 0
-1.28982e-31 -0.0718 0
1.46734e-31 -0.0718 0
5.76737e-34 -0.0718 0
-1.43529e-31 -0.0718 0
1.23733e-31 -0.0718 0
-1.38848e-31 -0.0718 0
1.79076e-31 -0.0718 0
-3.85313e-33 -0.0718 0
-1.65114e-31 -0.0718 0
1.3451e-31 -0.0718 0
-1.28982e-31 -0.0718 0
1.46734e-31 -0.0718 0
5.76737e-34 -0.0718 0
-1.4289e-31 -0.0718 0
1.24373e-31 -0.0718 0
-1.27453e-31 -0.0718 0
1.63249e-31 -0.0718 0
-1.05492e-32 -0.0718 0
-1.57196e-31 -0.0718 0
1.29807e-31 -0.0718 0
-1.43845e-31 -0.0718 0
1.85035e-31 -0.0718 0
-1.26848e-32 -0.0718 0
-9.3016e-32 -0.0718 0
-3.42346e-31 -0.0718 0
3.55549e-31 -0.0718 0
9.86432e-32 -0.0718 0
-8.52515e-33 -0.0718 0
-9.96968e-32 -0.0718 0
-3.41461e-31 -0.0718 0
6.19452e-23 -0.0718 0
-5.83143e-21 -0.0718 0
-1.96087e-19 -0.0718 0
-1.48186e-18 -0.0718 0
-5.58547e-18 -0.0718 0
-9.56587e-18 -0.0718 0
-5.5848e-18 -0.0718 0
9.9159e-18 -0.0718 0
4.39969e-17 -0.0718 0
5.3802e-17 -0.0718 0
3.10812e-17 -0.0718 0
-1.03975e-17 -0.0718 0
-1.31701e-16 -0.0718 0
-0.000403169 0.00183583 0
-0.000870817 0.00250021 0
-0.00106679 0.00382524 0
-0.00101203 0.00400915 0
-0.00142923 0.00195272 0
-0.00233367 0.00200034 0
-0.00288123 0.00215824 0
-0.00253597 -0.000859503 0
-0.00150838 -0.00601835 0
-0.00022004 -0.0109986 0
0.00108614 -0.0151774 0
0.00225467 -0.0192477 0
0.00319569 -0.0238106 0
0.00396231 -0.0290559 0
0.00449321 -0.03502 0
0.00471167 -0.0412692 0
0.00458455 -0.0473845 0
0.00419505 -0.0527089 0
0.00387825 -0.057118 0
0.00371613 -0.0610738 0
0.00342587 -0.0647163 0
0.00281732 -0.067697 0
0.0020086 -0.0697292 0
0.00124382 -0.0708817 0
0.00067778 -0.0714365 0
0.000329937 -0.0716691 0
0.000145474 -0.0717563 0
5.87787e-05 -0.0717862 0
2.19727e-05 -0.0717958 0
7.65832e-06 -0.0717988 0
2.5044e-06 -0.0717997 0
7.724e-07 -0.0717999 0
2.2565e-07 -0.0718 0
6.26737e-08 -0.0718 0
1.6603e-08 -0.0718 0
4.20683e-09 -0.0718 0
1.02203e-09 -0.0718 0
2.38627e-10 -0.0718 0
5.36499e-11 -0.0718 0
1.16344e-11 -0.0718 0
2.45711e-12 -0.0718 0
5.04407e-13 -0.0718 0
8.62836e-14 -0.0718 0
8.84346e-15 -0.0718 0
5.48748e-16 -0.0718 0
1.20319e-17 -0.0718 0
5.34976e-20 -0.0718 0
-3.98824e-22 -0.0718 0
2.66259e-30 -0.0718 0
6.8547e-33 -0.0718 0
-2.64674e-30 -0.0718 0
2.33835e-30 -0.0718 0
-2.31969e-30 -0.0718 0
2.61951e-30 -0.0718 0
2.02211e-32 -0.0718 0
-2.63427e-30 -0.0718 0
2.31893e-30 -0.0718 0
-2.3356e-30 -0.0718 0
2.63576e-30 -0.0718 0
-9.32872e-33 -0.0718 0
-2.62894e-30 -0.0718 0
2.31131e-30 -0.0718 0
-2.31574e-30 -0.0718 0
2.65138e-30 -0.0718 0
1.28791e-32 -0.0718 0
-2.63611e-30 -0.0718 0
2.31893e-30 -0.0718 0
-2.3356e-30 -0.0718 0
2.63576e-30 -0.0718 0
-9.32872e-33 -0.0718 0
-2.62862e-30 -0.0718 0
2.33642e-30 -0.0718 0
-2.32946e-30 -0.0718 0
2.66259e-30 -0.0718 0
6.8547e-33 -0.0718 0
-2.64674e-30 -0.0718 0
2.33835e-30 -0.0718 0
-2.31966e-30 -0.0718 0
2.65737e-30 -0.0718 0
2.63801e-31 -0.0718 0
-6.80647e-31 -0.0718 0
-5.36441e-30 -0.0718 0
5.39044e-30 -0.0718 0
6.7907e-31 -0.0718 0
-7.56014e-33 -0.0718 0
-7.04372e-31 -0.0718 0
-5.36062e-30 -0.0718 0
-1.73447e-21 -0.0718 0
-1.38544e-19 -0.0718 0
-9.58259e-19 -0.0718 0
-2.14188e-18 -0.0718 0
2.86801e-18 -0.0718 0
6.91213e-18 -0.0718 0
9.15259e-18 -0.0718 0
4.32814e-17 -0.0718 0
4.93497e-17 -0.0718 0
-1.52973e-17 -0.0718 0
-2.62427e-17 -0.0718 0
-1.13231e-17 -0.0718 0
-1.50108e-16 -0.0718 0
-0.000344299 0.00242699 0
-0.00061771 0.00347992 0
-0.000903786 0.00456547 0
-0.00120246 0.00488522 0
-0.0019858 0.00412058 0
-0.00299287 0.00506578 0
-0.00318067 0.00476561 0
-0.00225144 0.000542599 0
-0.000824064 -0.00579751 0
0.000501563 -0.0116611 0
0.00159718 -0.0163665 0
0.002546 -0.0206279 0
0.00335095 -0.0252361 0
0.00396568 -0.0304635 0
0.00434651 -0.036208 0
0.00445431 -0.0421291 0
0.00432947 -0.0477898 0
0.00414152 -0.0528859 0
0.00402161 -0.0574788 0
0.00384504 -0.061689 0
0.00339299 -0.0653392 0
0.00264944 -0.0681223 0
0.00180894 -0.069938 0
0.00108523 -0.0709547 0
0.000578577 -0.0714514 0
0.000277574 -0.0716674 0
0.000121237 -0.0717528 0
4.86973e-05 -0.0717841 0
1.8141e-05 -0.0717949 0
6.31179e-06 -0.0717984 0
2.06299e-06 -0.0717995 0
6.36512e-07 -0.0717999 0
1.8615e-07 -0.0718 0
5.17842e-08 -0.0718 0
1.3745e-08 -0.0718 0
3.49041e-09 -0.0718 0
8.50071e-10 -0.0718 0
1.98969e-10 -0.0718 0
4.48526e-11 -0.0718 0
9.76779e-12 -0.0718 0
2.06592e-12 -0.0718 0
4.24212e-13 -0.0718 0
6.94356e-14 -0.0718 0
6.95007e-15 -0.0718 0
4.20273e-16 -0.0718 0
9.60712e-18 -0.0718 0
7.13753e-20 -0.0718 0
-3.00213e-30 -0.0718 0
3.41589e-30 -0.0718 0
-2.42785e-32 -0.0718 0
-3.41326e-30 -0.0718 0
3.00891e-30 -0.0718 0
-3.00047e-30 -0.0718 0
3.38691e-30 -0.0718 0
5.58834e-33 -0.0718 0
-3.35914e-30 -0.0718 0
3.01962e-30 -0.0718 0
-3.05211e-30 -0.0718 0
3.39262e-30 -0.0718 0
2.33453e-32 -0.0718 0
-3.37724e-30 -0.0718 0
2.96965e-30 -0.0718 0
-2.99233e-30 -0.0718 0
3.38856e-30 -0.0718 0
2.48654e-32 -0.0718 0
-3.35475e-30 -0.0718 0
3.01962e-30 -0.0718 0
-3.05211e-30 -0.0718 0
3.39262e-30 -0.0718 0
2.33453e-32 -0.0718 0
-3.37694e-30 -0.0718 0
2.99285e-30 -0.0718 0
-3.00213e-30 -0.0718 0
3.41589e-30 -0.0718 0
-2.42785e-32 -0.0718 0
-3.41326e-30 -0.0718 0
3.00891e-30 -0.0718 0
-3.00126e-30 -0.0718 0
3.44266e-30 -0.0718 0
3.39279e-31 -0.0718 0
-8.24303e-31 -0.0718 0
-6.9009e-30 -0.0718 0
6.91043e-30 -0.0718 0
8.47624e-31 -0.0718 0
-3.44189e-33 -0.0718 0
-8.66591e-31 -0.0718 0
-6.89686e-30 -0.0718 0
-5.58353e-21 -0.0718 0
-3.21873e-19 -0.0718 0
-3.00616e-18 -0.0718 0
-1.34742e-17 -0.0718 0
-2.49535e-17 -0.0718 0