<?xml version='1.0' encoding='UTF-8'?>
<VTKFile byte_order='LittleEndian' version='0.1' type = 'UnstructuredGrid'>
<UnstructuredGrid>
<FieldData>
<DataArray type='Float64' Name='Time' NumberOfComponents='1' NumberOfTuples='1' format='ascii'>
4.961
</DataArray>
</FieldData>
<Piece NumberOfCells='808' NumberOfPoints='808'>
<Points>
<DataArray NumberOfComponents='3' type='Float64' Name='position' format='ascii'>
-0.00217461 -0.00244877 0
-0.00419166 0.0267257 0
-0.00975633 0.0495447 0
-0.0071515 0.0874482 0
-0.00751351 0.0950629 0
-0.0010651 0.123094 0
-0.00752124 0.150103 0
-0.00533823 0.177438 0
0.0266679 -0.00599087 0
0.0444678 -0.0062981 0
0.0755701 -0.00406963 0
0.0971091 -0.00277907 0
0.123011 -0.00273326 0
0.153998 -0.00656833 0
0.1759 -0.0139203 0
0.204029 -0.0159187 0
0.207148 -0.010506 0
0.231942 -0.0152915 0
0.251653 -0.026147 0
0.296709 -0.0299744 0
0.316809 -0.0455706 0
0.334522 -0.00131233 0
0.348266 -0.927512 0
0.361814 -0.893066 0
0.393063 -0.883272 0
0.430842 -0.887079 0
0.478038 -0.896718 0
0.472708 -0.854607 0
0.502336 -0.852328 0
0.55199 -0.856714 0
0.571285 -0.880715 0
0.606646 -0.889271 0
0.63438 -0.865125 0
0.625981 -0.879964 0
0.666199 -0.880247 0
0.683374 -0.87359 0
0.694114 -0.865077 0
0.73735 -0.857018 0
0.776969 -0.88986 0
0.806807 -0.874571 0
0.839656 -0.855626 0
0.883142 -0.858344 0
0.889898 -0.87654 0
0.64136 -1.26782 0
0.911798 -0.994619 0
0.955358 -0.994487 0
0.964626 -0.999758 0
0.987562 -1.0269 0
1.01092 -1.0222 0
1.0136 -1.03957 0
1.064 -1.09139 0
1.12053 -1.14059 0
1.16745 -1.08756 0
1.18818 -1.11834 0
1.1523 -1.18118 0
1.19094 -1.23166 0
1.18991 -1.21815 0
1.27434 -1.23828 0
1.26688 -1.27462 0
1.31506 -1.25998 0
1.33099 -1.27586 0
1.34454 -1.28286 0
1.36391 -1.30454 0
1.39646 -1.34149 0
1.41355 -1.32389 0
1.44128 -1.32475 0
1.47179 -1.36244 0
1.50369 -1.33698 0
1.5356 -1.36327 0
1.54377 -1.38828 0
1.58186 -1.36967 0
1.60327 -1.42515 0
1.6236 -1.41496 0
1.65911 -1.40653 0
1.67327 -1.40497 0
1.69304 -1.41876 0
1.74778 -1.45812 0
1.74966 -1.44717 0
1.77804 -1.45951 0
1.84249 -1.46311 0
1.84215 -1.47797 0
1.85636 -1.53265 0
1.86646 -1.51256 0
1.88857 -1.50986 0
1.92367 -1.52819 0
1.96135 -1.54202 0
1.97229 -1.53848 0
2.00947 -1.52709 0
2.03532 -1.52785 0
2.03996 -1.55809 0
2.06116 -1.57873 0
2.08644 -1.56745 0
2.1246 -1.55665 0
2.15761 -1.56971 0
2.17355 -1.58801 0
2.1977 -1.58226 0
2.20502 -1.56765 0
2.23665 -1.57349 0
2.26996 -1.58786 0
2.28751 -1.59016 0
2.3086 -1.58342 0
2.34042 -1.57756 0
2.36585 -1.57898 0
2.38077 -1.58506 0
2.39552 -1.58991 0
2.42024 -1.59123 0
2.45439 -1.58612 0
2.48753 -1.57994 0
0.0204352 0.0163927 0
0.0334156 0.00138944 0
0.102039 0.0474139 0
0.0975441 0.0322854 0
0.116179 0.040378 0
0.130307 0.0234637 0
0.12062 0.0209785 0
0.209181 0.00091134 0
0.236474 0.00917219 0
0.246132 0.0255842 0
0.232558 0.0183735 0
0.279782 0.0478892 0
0.313559 0.0385104 0
0.363092 0.0383892 0
0.333007 -0.909256 0
0.378415 -0.883663 0
0.409691 -0.877531 0
0.421912 -0.863297 0
0.456472 -0.846218 0
0.465177 -0.839346 0
0.50563 -0.830972 0
0.539421 -0.8323 0
0.559654 -0.84166 0
0.589086 -0.823149 0
0.612603 -0.842943 0
0.656391 -0.838777 0
0.648604 -0.845913 0
0.676386 -0.850345 0
0.703595 -0.854152 0
0.729394 -0.847347 0
0.78486 -0.850526 0
0.820652 -0.846869 0
0.840505 -0.834254 0
0.866976 -0.837184 0
0.899181 -0.858432 0
0.933175 -0.882409 0
0.944019 -0.879701 0
0.941827 -0.925855 0
0.977462 -0.948694 0
0.993789 -0.995438 0
1.01388 -1.01072 0
1.05424 -1.03897 0
1.07856 -1.0305 0
1.09329 -1.1064 0
1.11797 -1.09885 0
1.15388 -1.10095 0
1.19468 -1.10847 0
1.20216 -1.12125 0
1.22691 -1.12962 0
1.22502 -1.22195 0
1.27224 -1.20366 0
1.29493 -1.22901 0
1.32689 -1.23312 0
1.34345 -1.26081 0
1.36656 -1.27579 0
1.399 -1.29706 0
1.43924 -1.31226 0
1.44678 -1.3331 0
1.47549 -1.29908 0
1.50526 -1.30675 0
1.52199 -1.32788 0
1.54575 -1.34368 0
1.5743 -1.37776 0
1.60887 -1.38484 0
1.61786 -1.38921 0
1.65024 -1.39843 0
1.68335 -1.387 0
1.73256 -1.41029 0
1.70127 -1.42724 0
1.75988 -1.43533 0
1.78139 -1.4423 0
1.82301 -1.4541 0
1.8224 -1.46786 0
1.85817 -1.48206 0
1.87132 -1.48541 0
1.90391 -1.50721 0
1.92975 -1.5019 0
1.95082 -1.496 0
1.97702 -1.51012 0
1.99839 -1.51179 0
2.02081 -1.51358 0
2.05042 -1.53061 0
2.06577 -1.53625 0
2.08777 -1.54563 0
2.12743 -1.54221 0
2.14793 -1.54516 0
2.17481 -1.5584 0
2.1992 -1.55135 0
2.2136 -1.54842 0
2.23604 -1.55264 0
2.26434 -1.5577 0
2.29051 -1.558 0
2.31073 -1.55775 0
2.33444 -1.55988 0
2.36176 -1.55596 0
2.38448 -1.55425 0
2.40276 -1.56193 0
2.4248 -1.56723 0
2.45325 -1.56539 0
2.48477 -1.5595 0
0.0403784 0.0397357 0
0.0519719 0.0550753 0
0.0820976 0.0479362 0
0.105159 0.0661359 0
0.116943 0.0585993 0
0.152839 0.0337303 0
0.196819 0.0495865 0
0.208079 0.0403823 0
0.198237 0.03861 0
0.226893 0.0673498 0
0.238627 0.050937 0
0.299941 0.0631887 0
0.31431 0.0646815 0
0.35869 0.0745613 0
0.388504 0.0719994 0
0.39449 -0.863994 0
0.377396 -0.825542 0
0.426784 -0.842993 0
0.44612 -0.821978 0
0.489909 -0.808838 0
0.505805 -0.803576 0
0.542096 -0.811865 0
0.570283 -0.841736 0
0.583329 -0.808431 0
0.628233 -0.819452 0
0.649363 -0.816573 0
0.675054 -0.831499 0
0.696782 -0.811037 0
0.705617 -0.820353 0
0.714943 -0.825454 0
0.758414 -0.824125 0
0.799748 -0.811762 0
0.831295 -0.826554 0
0.860903 -0.825551 0
0.892488 -0.838718 0
0.921738 -0.844085 0
0.937728 -0.863115 0
0.941913 -0.90986 0
0.987488 -0.909728 0
1.02038 -0.96918 0
1.02748 -0.98402 0
1.03962 -0.994377 0
1.07985 -1.01932 0
1.09496 -1.04642 0
1.12321 -1.06548 0
1.16775 -1.06802 0
1.18382 -1.0784 0
1.20695 -1.10188 0
1.21799 -1.11917 0
1.22721 -1.15458 0
1.25474 -1.18961 0
1.2614 -1.2062 0
1.30396 -1.19825 0
1.34744 -1.22564 0
1.3747 -1.20803 0
1.39831 -1.28527 0
1.4174 -1.29144 0
1.44807 -1.29382 0
1.48866 -1.2719 0
1.49091 -1.28292 0
1.53141 -1.29851 0
1.56009 -1.30289 0
1.5575 -1.33035 0
1.5978 -1.3536 0
1.63311 -1.34912 0
1.65709 -1.36509 0
1.69153 -1.3728 0
1.69773 -1.38497 0
1.72869 -1.38998 0
1.74715 -1.38246 0
1.78605 -1.42143 0
1.82266 -1.44243 0
1.83594 -1.43194 0
1.8499 -1.45186 0
1.87791 -1.46389 0
1.91214 -1.48233 0
1.93391 -1.48759 0
1.94284 -1.45872 0
1.96452 -1.46807 0
2.00336 -1.497 0
2.0289 -1.49885 0
2.0474 -1.49126 0
2.07557 -1.50535 0
2.09645 -1.52178 0
2.10991 -1.52005 0
2.14826 -1.52077 0
2.184 -1.51862 0
2.19724 -1.52288 0
2.21141 -1.52918 0
2.23638 -1.53467 0
2.26628 -1.52571 0
2.29056 -1.52361 0
2.31011 -1.53428 0
2.33076 -1.5407 0
2.35893 -1.5355 0
2.38758 -1.52801 0
2.40853 -1.53287 0
2.42809 -1.54066 0
2.45267 -1.54137 0
2.48188 -1.53646 0
0.0161169 0.0672385 0
0.0592742 0.0884196 0
0.0813852 0.0797537 0
0.0888361 0.0696379 0
0.130875 0.0734277 0
0.147562 0.0809369 0
0.168369 0.0694256 0
0.207781 0.0559498 0
0.22539 0.0829252 0
0.240936 0.0935341 0
0.278512 0.105642 0
0.28894 0.0931594 0
0.329246 0.103965 0
0.345776 0.10403 0
0.408068 0.0950586 0
0.377561 -0.809382 0
0.394654 -0.813156 0
0.421386 -0.812408 0
0.440304 -0.800209 0
0.483374 -0.775715 0
0.507723 -0.778596 0
0.523889 -0.794774 0
0.552729 -0.777675 0
0.590213 -0.780282 0
0.621628 -0.779265 0
0.671025 -0.783548 0
0.684188 -0.78699 0
0.69822 -0.79105 0
0.726234 -0.785182 0
0.719731 -0.800673 0
0.75841 -0.803124 0
0.790433 -0.805352 0
0.824891 -0.811138 0
0.866023 -0.788495 0
0.886775 -0.795144 0
0.883676 -0.806564 0
0.947659 -0.819759 0
0.937713 -0.85255 0
0.98816 -0.882382 0
0.995101 -0.895769 0
1.00369 -0.950181 0
1.03326 -0.974095 0
1.05791 -0.990957 0
1.10413 -1.00958 0
1.11975 -1.0489 0
1.15491 -1.06337 0
1.1952 -1.0564 0
1.20661 -1.0865 0
1.22854 -1.09677 0
1.24925 -1.118 0
1.28075 -1.16224 0
1.30375 -1.17532 0
1.31987 -1.15682 0
1.35154 -1.1696 0
1.36565 -1.17633 0
1.38615 -1.21885 0
1.4079 -1.25653 0
1.4459 -1.28188 0
1.47978 -1.26013 0
1.52248 -1.28569 0
1.52879 -1.26545 0
1.54539 -1.29473 0
1.59065 -1.31113 0
1.59873 -1.3272 0
1.64676 -1.32717 0
1.66431 -1.32758 0
1.69611 -1.3418 0
1.71407 -1.35435 0
1.74853 -1.36806 0
1.76269 -1.36533 0
1.77457 -1.36525 0
1.79935 -1.43044 0
1.83078 -1.39781 0
1.84968 -1.39294 0
1.88507 -1.44175 0
1.91156 -1.4635 0
1.92085 -1.44521 0
1.94913 -1.4299 0
1.97265 -1.44881 0
1.9917 -1.47944 0
2.0221 -1.48193 0
2.05446 -1.46226 0
2.07504 -1.46942 0
2.08911 -1.49852 0
2.11773 -1.50392 0
2.15347 -1.48583 0
2.17845 -1.4828 0
2.19775 -1.50121 0
2.21412 -1.50909 0
2.23385 -1.50609 0
2.2641 -1.49586 0
2.29435 -1.49634 0
2.31334 -1.50759 0
2.32857 -1.51918 0
2.35555 -1.51443 0
2.38807 -1.50234 0
2.41176 -1.50322 0
2.42999 -1.51082 0
2.45203 -1.51228 0
2.4796 -1.5051 0
0.018401 0.113588 0
0.0458462 0.0925401 0
0.0704248 0.109712 0
0.092294 0.0993198 0
0.124663 0.0878813 0
0.162788 0.114594 0
0.143159 0.116358 0
0.194358 0.110696 0
0.197006 0.122311 0
0.238781 0.128668 0
0.263168 0.139072 0
0.286614 0.148672 0
0.355617 0.14488 0
0.374359 0.151449 0
0.396578 0.15781 0
0.414744 0.189997 0
0.393576 -0.768485 0
0.424494 -0.757554 0
0.449321 -0.761186 0
0.471458 -0.775106 0
0.528769 -0.747351 0
0.516964 -0.764288 0
0.564266 -0.775329 0
0.576894 -0.776578 0
0.621025 -0.760433 0
0.657187 -0.763591 0
0.673333 -0.764456 0
0.707456 -0.776497 0
0.724164 -0.769885 0
0.737073 -0.776405 0
0.758961 -0.767325 0
0.790075 -0.761243 0
0.846274 -0.777644 0
0.874518 -0.77809 0
0.904054 -0.766705 0
0.923309 -0.76558 0
0.947423 -0.797942 0
0.967881 -0.83121 0
0.990203 -0.872593 0
1.01701 -0.892647 0
1.03537 -0.926245 0
1.04777 -0.970021 0
1.06347 -0.978002 0
1.09716 -0.971817 0
1.12744 -1.00078 0
1.12707 -1.035 0
1.18478 -1.04966 0
1.21969 -1.06466 0
1.22482 -1.08391 0
1.24947 -1.10033 0
1.28368 -1.12408 0
1.30321 -1.15107 0
1.31695 -1.13867 0
1.34639 -1.15935 0
1.38627 -1.18094 0
1.37711 -1.1851 0
1.42133 -1.22206 0
1.42864 -1.232 0
1.47985 -1.22604 0
1.51479 -1.23369 0
1.53337 -1.24672 0
1.54774 -1.27407 0
1.59304 -1.29397 0
1.60206 -1.3001 0
1.63091 -1.33459 0
1.65722 -1.31241 0
1.70254 -1.31697 0
1.72427 -1.33254 0
1.72176 -1.3428 0
1.7552 -1.32632 0
1.78687 -1.34403 0
1.80268 -1.37075 0
1.84091 -1.38597 0
1.85598 -1.3828 0
1.88174 -1.39527 0
1.91575 -1.42955 0
1.91493 -1.41928 0
1.95043 -1.40019 0
1.97817 -1.42659 0
1.99089 -1.45736 0
2.01407 -1.45122 0
2.0494 -1.43599 0
2.07947 -1.45315 0
2.09443 -1.47311 0
2.11933 -1.47325 0
2.15209 -1.4579 0
2.17743 -1.45973 0
2.1965 -1.47663 0
2.21437 -1.48666 0
2.23431 -1.47971 0
2.26367 -1.46648 0
2.29591 -1.46942 0
2.31689 -1.48532 0
2.33018 -1.49564 0
2.3528 -1.4868 0
2.38552 -1.47555 0
2.41232 -1.47678 0
2.43068 -1.48195 0
2.45134 -1.48158 0
2.47891 -1.47435 0
0.0330316 0.119504 0
0.0551263 0.125614 0
0.069005 0.134732 0
0.0892608 0.151069 0
0.110947 0.143756 0
0.131174 0.144069 0
0.15199 0.126858 0
0.179636 0.132476 0
0.21441 0.145852 0
0.231208 0.160863 0
0.283624 0.161652 0
0.322013 0.183737 0
0.334686 0.180348 0
0.345822 0.180531 0
0.387251 0.185073 0
0.398617 0.200638 0
0.423581 0.210273 0
0.458061 -0.741912 0
0.45087 -0.734963 0
0.469099 -0.728871 0
0.501927 -0.735878 0
0.55303 -0.720924 0
0.557515 -0.729862 0
0.600215 -0.704965 0
0.644669 -0.725059 0
0.658599 -0.740672 0
0.685423 -0.741012 0
0.697079 -0.737614 0
0.717559 -0.745171 0
0.738984 -0.743509 0
0.767751 -0.730136 0
0.810834 -0.740285 0
0.821957 -0.760855 0
0.86833 -0.745998 0
0.913976 -0.728317 0
0.946299 -0.743297 0
0.932938 -0.745991 0
0.981043 -0.832343 0
0.98954 -0.859271 0
1.01557 -0.8674 0
1.03737 -0.908736 0
1.04423 -0.945096 0
1.07906 -0.944051 0
1.09941 -0.946562 0
1.12366 -0.977966 0
1.17071 -1.00114 0
1.20448 -1.03952 0
1.20198 -1.0164 0
1.2324 -1.04824 0
1.23471 -1.08672 0
1.25986 -1.10428 0
1.29273 -1.11326 0
1.31887 -1.09901 0
1.34827 -1.1239 0
1.38936 -1.15031 0
1.41477 -1.12498 0
1.41212 -1.17738 0
1.43099 -1.20503 0
1.44417 -1.18882 0
1.49426 -1.20089 0
1.5164 -1.2189 0
1.54683 -1.21517 0
1.59185 -1.25163 0
1.60607 -1.25551 0
1.62838 -1.29695 0
1.66467 -1.30381 0
1.6775 -1.2967 0
1.71501 -1.31396 0
1.74147 -1.3189 0
1.75755 -1.30482 0
1.77383 -1.31858 0
1.81496 -1.3375 0
1.83585 -1.35315 0
1.85088 -1.35155 0
1.88166 -1.35993 0
1.90377 -1.38598 0
1.91562 -1.38729 0
1.95199 -1.38082 0
1.97803 -1.40574 0
1.98599 -1.42037 0
2.01918 -1.42277 0
2.05075 -1.42564 0
2.0808 -1.43104 0
2.10057 -1.44147 0
2.11527 -1.43742 0
2.14854 -1.43115 0
2.17777 -1.43869 0
2.19778 -1.45423 0
2.2138 -1.45762 0
2.23383 -1.4499 0
2.26477 -1.44312 0
2.29799 -1.44888 0
2.31923 -1.4596 0
2.33157 -1.46556 0
2.35195 -1.45763 0
2.38318 -1.44917 0
2.41122 -1.45167 0
2.4316 -1.45691 0
2.45208 -1.45665 0
2.47849 -1.45146 0
0.0327614 0.163512 0
0.0587064 0.186062 0
0.0773345 0.190396 0
0.0823874 0.175937 0
0.104131 0.183538 0
0.134497 0.162075 0
0.162287 0.185432 0
0.181801 0.167793 0
0.191017 0.161397 0
0.220928 0.174592 0
0.264171 0.18921 0
0.305359 0.217451 0
0.334694 0.21456 0
0.350721 0.213272 0
0.369885 0.231689 0
0.400761 0.212829 0
1.07687 -0.0882063 0
0.452135 -0.710172 0
0.446109 -0.702142 0
0.476539 -0.70678 0
0.504043 -0.718457 0
0.539954 -0.708702 0
0.576627 -0.717863 0
0.597362 -0.714549 0
0.61967 -0.703926 0
0.626076 -0.735265 0
0.682295 -0.70719 0
0.706264 -0.713049 0
0.735807 -0.707065 0
0.738249 -0.69467 0
0.752343 -0.702162 0
0.78782 -0.717528 0
0.820735 -0.704881 0
0.867256 -0.720316 0
0.874397 -0.712377 0
0.930479 -0.715282 0
0.95291 -0.70396 0
0.967394 -0.697047 0
0.996653 -0.847883 0
1.01838 -0.839892 0
1.0428 -0.867096 0
1.06316 -0.916405 0
1.08057 -0.919734 0
1.12205 -0.899638 0
1.12037 -0.939457 0
1.16821 -0.960342 0
1.20625 -1.00712 0
1.21106 -1.02059 0
1.21474 -1.03156 0
1.25285 -1.06371 0
1.26944 -1.07499 0
1.30511 -1.09688 0
1.34513 -1.0927 0
1.36139 -1.1045 0
1.39421 -1.11381 0
1.40568 -1.12915 0
1.40721 -1.15133 0
1.41902 -1.14437 0
1.45902 -1.15885 0
1.50887 -1.18425 0
1.5314 -1.20357 0
1.56525 -1.22244 0
1.59739 -1.21254 0
1.62225 -1.24953 0
1.63712 -1.26173 0
1.66794 -1.26476 0
1.68047 -1.27605 0
1.71953 -1.29408 0
1.73429 -1.29502 0
1.74659 -1.26731 0
1.7804 -1.3053 0
1.81438 -1.31782 0
1.82856 -1.31007 0
1.86368 -1.32592 0
1.88842 -1.32563 0
1.90621 -1.34519 0
1.92512 -1.37649 0
1.95619 -1.37149 0
1.96789 -1.35974 0
1.98398 -1.37635 0
2.01542 -1.40401 0
2.05437 -1.41246 0
2.08563 -1.39707 0
2.10527 -1.4032 0
2.11427 -1.40867 0
2.14292 -1.41289 0
2.17809 -1.41809 0
2.19958 -1.42251 0
2.21165 -1.42459 0
2.2332 -1.42542 0
2.26529 -1.42117 0
2.30061 -1.42542 0
2.32123 -1.43457 0
2.33236 -1.43332 0
2.35187 -1.42633 0
2.38218 -1.42389 0
2.41162 -1.42925 0
2.43454 -1.4357 0
2.45411 -1.4357 0
2.47616 -1.43171 0
0.0339976 0.208233 0
0.0389228 0.22923 0
0.0662673 0.205968 0
0.0829572 0.228114 0
0.0920216 0.200709 0
0.162134 0.196711 0
0.161408 0.206804 0
0.183211 0.201212 0
0.215628 0.212728 0
0.240726 0.212936 0
0.267151 0.226899 0
0.328581 0.223378 0
0.337321 0.232711 0
0.362883 0.268562 0
0.373645 0.254671 0
0.441264 0.235711 0
0.419613 0.25132 0
0.419836 -0.691747 0
0.447737 -0.684667 0
0.472147 -0.652023 0
0.560626 -0.48741 0
0.582528 -0.491059 0
0.550836 -0.702355 0
0.576977 -0.675902 0
0.622667 -0.678037 0
0.635012 -0.675026 0
0.654241 -0.701392 0
0.68245 -0.666559 0
0.72374 -0.700052 0
0.751468 -0.688023 0
0.772853 -0.675518 0
0.794182 -0.661877 0
0.806865 -0.674765 0
0.852894 -0.691662 0
0.914844 -0.687452 0
0.926666 -0.68265 0
0.947098 -0.645899 0
0.993467 -0.665283 0
1.48627 -0.598332 0
1.01839 -0.80756 0
1.03509 -0.817639 0
1.07834 -0.862717 0
1.10848 -0.875489 0
1.117 -0.888668 0
1.1724 -0.915405 0
1.18226 -0.906231 0
1.18955 -0.948146 0
1.19584 -1.00037 0
1.19977 -1.02617 0
1.24149 -1.02267 0
1.28569 -1.03846 0
1.31511 -1.07093 0
1.3272 -1.08566 0
1.35745 -1.07968 0
1.36988 -1.07593 0
1.41049 -1.09156 0
1.43235 -1.11068 0
1.46347 -1.13593 0
1.43667 -1.15778 0
1.49742 -1.15912 0
1.52129 -1.17886 0
1.52285 -1.19021 0
1.58307 -1.18175 0
1.60425 -1.22465 0
1.62347 -1.22394 0
1.65232 -1.23252 0
1.67917 -1.24605 0
1.71193 -1.25447 0
1.74127 -1.25372 0
1.75555 -1.25875 0
1.79679 -1.26299 0
1.82052 -1.26388 0
1.8342 -1.28932 0
1.8598 -1.30174 0
1.86871 -1.28195 0
1.90118 -1.32247 0
1.94396 -1.37021 0
1.95484 -1.34576 0
1.95477 -1.31071 0
1.98036 -1.34086 0
2.03141 -1.39187 0
2.05128 -1.38972 0
2.08967 -1.35548 0
2.09964 -1.3682 0
2.11942 -1.38756 0
2.14668 -1.40263 0
2.17386 -1.38947 0
2.19904 -1.38484 0
2.2125 -1.39664 0
2.23178 -1.40221 0
2.26945 -1.40587 0
2.29743 -1.40263 0
2.3218 -1.40388 0
2.33342 -1.39738 0
2.35071 -1.39494 0
2.38397 -1.39906 0
2.41462 -1.40804 0
2.43843 -1.4155 0
2.45605 -1.41439 0
2.47078 -1.40871 0
</DataArray>
</Points>
<PointData>
<DataArray NumberOfComponents='1' type='Int32' Name='Particle Type' format='ascii'>
0
0
0
0
0
0
0
0
0
0
0
0
0
0
0
0
0
0
0
0
0
0
1
1
1
1
1
1
1
1
1
1
1
1
1
1
1
1
1
1
1
1
1
1
1
1
1
1
1
1
1
1
1
1
1
1
1
1
1
1
1
1
1
1
1
1
1
1
1
1
1
1
1
1
1
1
1
1
1
1
1
1
1
1
1
1
1
1
1
1
1
1
1
1
1
1
1
1
1
1
1
1
1
1
1
1
1
1
1
1
1
1
1
1
1
1
1
1
1
1
1
1
1
1
1
1
1
1
1
1
1
1
1
1
1
1
1
1
1
1
1
1
1
1
1
1
1
1
1
1
1
1
1
1
1
1
1
1
1
1
1
1
1
1
1
1
1
1
1
1
1
1
1
1
1
1
1
1
1
1
1
1
1
1
1
1
1
1
1
1
1
1
1
1
1
1
1
1
1
1
1
1
1
1
1
1
1
1
1
1
1
1
1
1
1
1
1
1
1
1
1
1
1
1
1
1
1
1
1
1
1
1
1
1
1
1
1
1
1
1
1
1
1
1
1
1
1
1
1
1
1
1
1
1
1
1
1
1
1
1
1
1
1
1
1
1
1
1
1
1
1
1
1
1
1
1
1
1
1
1
1
1
1
1
1
1
1
1
1
1
1
1
1
1
1
1
1
1
1
1
1
1
1
1
1
1
1
1
1
1
1
1
1
1
1
1
1
1
1
1
1
1
1
1
1
1
1
1
1
1
1
1
1
1
1
1
1
1
1
1
1
1
1
1
1
1
1
1
1
1
1
1
1
1
1
1
1
1
1
1
1
1
1
1
1
1
1
1
1
1
1
1
1
1
1
1
1
1
1
1
1
1
1
1
1
1
1
1
1
1
1
1
1
1
1
1
1
1
1
1
1
1
1
1
1
1
1
1
1
1
1
1
1
1
1
1
1
1
1
1
1
1
1
1
1
1
1
1
1
1
1
1
1
1
1
1
1
1
1
1
1
1
1
1
1
1
1
1
1
1
1
1
1
1
1
1
1
1
1
1
1
1
1
1
1
1
1
1
1
1
1
1
1
1
1
1
1
1
1
1
1
1
1
1
1
1
1
1
1
1
1
1
1
1
1
1
1
1
1
1
1
1
1
1
1
1
1
1
1
1
1
1
1
1
1
1
1
1
1
1
1
1
1
1
1
1
1
1
1
1
1
1
1
1
1
1
1
1
1
1
1
1
1
1
1
1
1
1
1
1
1
1
1
1
1
1
1
1
1
1
1
1
1
1
1
1
1
1
1
1
1
1
1
1
1
1
1
1
1
1
1
1
1
1
1
1
1
1
1
1
1
1
1
1
1
1
1
1
1
1
1
1
1
1
1
1
1
1
1
1
1
1
1
1
1
1
1
1
1
1
1
1
1
1
1
1
1
1
1
1
1
1
1
1
1
1
1
1
1
1
1
1
1
1
1
1
1
1
1
1
1
1
1
1
1
1
1
1
1
1
1
1
1
1
1
1
1
1
1
1
1
1
1
1
1
1
1
1
1
1
1
1
1
1
1
1
1
1
1
1
1
1
1
1
1
1
1
1
1
1
1
1
1
1
1
1
1
1
1
1
1
1
1
1
1
1
1
1
1
1
1
1
1
1
1
1
1
1
1
1
1
1
1
1
1
1
1
1
1
1
1
1
1
1
1
1
1
1
1
1
1
1
1
1
1
1
1
1
1
1
1
1
1
1
1
1
1
1
1
1
1
1
1
1
1
1
1
1
1
1
1
1
1
1
1
1
1
1
1
1
1
1
1
1
1
1
1
1
1
1
1
1
1
1
1
1
1
1
</DataArray>
<DataArray NumberOfComponents='3' type='Float64' Name='Velocity' format='ascii'>
-0.735997 -0.2641 0
-0.768872 0.338967 0
-1.0952 0.111387 0
-0.620877 0.952867 0
-0.788915 -0.18557 0
-0.524627 -0.330552 0
-1.28465 -0.0832856 0
-0.772271 0.333739 0
-0.248322 -1.16914 0
-0.569497 -1.09535 0
0.192672 -0.588781 0
-0.242944 -0.465911 0
-0.409616 -0.181202 0
0.376891 -0.837306 0
0.0480942 -1.01038 0
-0.425703 -0.836261 0
-0.272176 -0.263387 0
0.0826538 -0.639002 0
-0.855123 -0.261107 0
0.918981 -0.937343 0
0.0245939 -0.7824 0
-0.0083596 -0.175386 0
0.263148 -1.00562 0
0.435603 -0.501544 0
-0.163813 -1.0984 0
-0.666562 -0.634152 0
0.0405576 -0.802059 0
0.289403 -0.775904 0
0.371392 -0.846198 0
0.3459 -1.09721 0
-0.0422765 -1.19137 0
0.617919 -1.32324 0
0.244789 -1.35343 0
-0.122012 -1.44416 0
0.159471 -1.40244 0
0.992884 0.700306 0
-0.322244 -1.19067 0
-0.700634 -0.388802 0
0.0154 -1.45029 0
-0.090415 -1.3489 0
-0.187791 -1.83453 0
0.645896 -1.15617 0
-0.181808 0.132949 0
-0.511353 -1.08502 0
-0.27843 -0.614143 0
-0.480973 -0.73807 0
-0.207731 -0.824096 0
0.104406 -0.74727 0
0.14092 -0.797589 0
0.533774 0.214368 0
0.140062 -0.305381 0
0.192832 -0.83713 0
0.0113386 -0.828512 0
0.378162 0.2568 0
0.414592 0.107142 0
-0.208904 -0.271007 0
0.687779 0.103994 0
0.693224 -0.645189 0
0.302746 -0.968351 0
1.45236 -0.962783 0
-1.07559 -0.485384 0
1.15594 0.189928 0
-0.368636 0.476509 0
-0.16965 -0.301861 0
-0.606893 0.611412 0
0.076885 0.335345 0
-0.0325158 -0.900896 0
-0.338651 -0.466641 0
0.49065 -0.759706 0
-0.547724 -0.384572 0
-0.384316 -0.532525 0
0.107599 -0.434699 0
-0.259355 -0.486886 0
0.171285 -0.101898 0
0.738158 0.0587294 0
0.741532 0.30382 0
-0.987316 -0.182445 0
-0.239017 -1.10947 0
-0.546075 -0.273641 0
-0.641725 -0.196664 0
1.31113 0.890494 0
-0.0679844 0.731408 0
0.740665 -1.63981 0
-0.319638 -0.0436415 0
-0.642473 0.350253 0
0.256243 -0.121465 0
-0.227125 -1.06538 0
-0.334445 -0.565861 0
0.510908 0.0730719 0
0.478974 0.581684 0
-0.143775 -0.205285 0
-0.0876183 -1.01817 0
-0.512451 -0.199621 0
0.134169 0.37147 0
0.0777875 0.0505426 0
0.337902 -0.877607 0
0.132992 -0.746543 0
-0.416992 -0.160211 0
0.0506225 0.0565592 0
0.47159 0.0752702 0
0.158077 -0.0246068 0
-0.215225 -0.356753 0
-0.235576 -0.5482 0
-0.155968 -0.492287 0
0.134696 -0.0959093 0
0.424977 0.0454695 0
0.338604 -0.168201 0
-0.255204 -0.508332 0
1.32087 0.512956 0
-0.521413 -0.0598437 0
-0.426014 -0.497099 0
-0.434824 -0.371301 0
-0.749983 -0.90035 0
0.632452 0.00597465 0
0.618465 -0.00349813 0
0.273285 -0.529477 0
0.521096 -0.0540242 0
-0.210282 0.138197 0
0.659482 0.295985 0
-0.53222 0.566254 0
-0.573348 0.325747 0
-0.629825 -0.490932 0
0.900783 -0.885841 0
-0.279109 -1.80669 0
-0.123782 -1.42743 0
-0.668364 -1.46486 0
0.433575 -0.186619 0
-0.904563 -2.51504 0
0.22204 -1.88639 0
-0.681779 -0.686736 0
-0.352764 -1.29218 0
-0.576475 -1.49024 0
-0.0447592 -0.317967 0
0.369982 -1.36401 0
0.406527 -1.38621 0
0.022012 -2.05405 0
0.346728 -2.2193 0
0.0984881 -1.06719 0
-0.195006 -1.61793 0
-0.202416 -0.642507 0
-0.477277 -1.0515 0
0.319096 -0.723217 0
1.24181 -0.79168 0
0.98644 -1.33391 0
0.210113 -1.3252 0
0.314226 -0.853606 0
-0.65715 -0.799998 0
0.41108 -0.341444 0
-0.00185399 -0.319388 0
0.933507 -0.719015 0
0.781317 -0.296622 0
-0.60625 -0.327614 0
0.235905 -0.596326 0
-0.78273 -0.135034 0
-0.25666 -0.537484 0
0.0633066 -0.903492 0
0.692862 -0.4226 0
-0.684419 -0.539194 0
-1.08967 0.0431455 0
-1.4055 -0.33747 0
-0.435065 0.2971 0
0.330873 -0.139703 0
-0.443629 -0.353489 0
-0.834975 -0.73775 0
-0.0139503 -1.29167 0
0.0483718 0.215215 0
-0.296268 -1.14666 0
-0.836716 -0.245475 0
0.197499 -0.123584 0
-0.0737116 0.280169 0
0.160271 0.259252 0
-0.3908 -0.322323 0
-0.719078 -1.13956 0
-0.392734 -1.25856 0
-0.0142673 -0.698584 0
0.613745 -0.552497 0
1.40604 0.708163 0
-0.508165 0.686417 0
0.460497 -0.0990284 0
-0.0886131 -0.709734 0
0.076878 -0.352061 0
-0.420706 -0.167955 0
0.398434 0.0823364 0
-0.18593 -0.312789 0
0.117179 -0.704574 0
-0.0171791 -0.17083 0
0.043854 -0.225445 0
0.115833 -0.546328 0
0.0766805 0.0807254 0
0.00960344 -0.230925 0
0.301175 -0.37451 0
-0.383321 -0.206214 0
-0.186799 -0.480797 0
0.194226 0.215057 0
-0.20062 -0.25375 0
0.219001 -0.586128 0
0.222067 -0.522309 0
-0.0358941 -0.359974 0
-0.133674 -0.159423 0
0.170246 0.0087491 0
0.282415 0.0919861 0
-0.0528773 -0.248329 0
-0.214081 -0.582465 0
-0.0410882 -0.417073 0
0.191734 -0.0887011 0
0.281861 0.0230577 0
0.14244 -0.153426 0
-0.132419 -0.273986 0
0.0766046 1.54425 0
-0.40839 0.089702 0
-0.443534 -0.916138 0
0.164121 -0.10333 0
0.553897 -0.709553 0
0.0153001 0.0642517 0
-0.565849 -0.542863 0
-0.124218 -0.173918 0
-0.204978 -0.329336 0
-1.10048 -0.698915 0
-2.00995 -2.22233 0
-0.658569 -0.867694 0
0.143833 -0.840736 0
0.758937 -0.781135 0
0.0617698 -0.824003 0
0.00940894 -0.908997 0
-0.143089 -1.27473 0
0.0866096 -0.972246 0
0.227032 -1.49473 0
-0.011334 -1.60108 0
-0.755619 -0.255696 0
0.370089 -1.24501 0
-0.234144 -0.351242 0
0.256265 -0.750606 0
-0.651127 0.137373 0
-0.246937 -0.773637 0
-0.073792 -1.10246 0
-0.102437 -1.46366 0
-0.142577 -0.731094 0
0.347218 -0.408889 0
0.058986 -1.62013 0
-1.17078 -0.192521 0
-0.516152 -0.581064 0
0.0741991 -0.51466 0
0.982327 -1.18539 0
0.379608 -1.47113 0
-0.0285857 -0.790073 0
-0.169338 -0.932427 0
0.29434 -0.33772 0
-0.501883 0.114223 0
0.12131 0.249838 0
-0.137973 -0.830157 0
0.774246 0.122527 0
-1.01365 0.0532835 0
-0.582561 -0.566288 0
0.12641 -0.232951 0
-0.193918 -0.283402 0
-0.42301 0.244516 0
0.707842 -0.341365 0
-0.382728 -0.0339369 0
-0.0319567 1.25761 0
-0.924418 -0.43485 0
-0.0514442 -0.298413 0
0.582698 -0.71969 0
1.11065 -0.494741 0
0.611338 0.046962 0
0.228756 -0.746454 0
-0.17465 -0.668248 0
-0.76462 -0.801493 0
0.596839 -1.00831 0
-0.466445 1.3432 0
-0.508292 -0.860155 0
0.280065 0.203506 0
0.179644 -0.604356 0
-0.462973 -0.476361 0
-1.3669 -0.508982 0
0.467974 -0.403528 0
0.720478 -0.603607 0
-0.33287 -1.03747 0
0.190845 -0.48489 0
-0.16397 1.57841 0
-0.264362 -1.45602 0
-0.00981015 0.204467 0
0.0141886 0.138796 0
-0.605474 -0.22522 0
-0.129995 0.356645 0
0.307401 -0.96842 0
0.516943 -0.986784 0
-0.412049 0.448241 0
-0.303098 0.212549 0
0.04916 -0.688439 0
0.0513318 -0.298901 0
-0.115775 0.176767 0
0.466121 -0.330142 0
0.0314478 -0.353082 0
-0.668382 -0.403018 0
0.0473042 -0.272214 0
0.459303 -0.175734 0
0.202759 -0.142585 0
-0.147592 -0.495745 0
-0.0970758 -0.6155 0
0.155356 0.0488626 0
0.241901 0.180204 0
0.0249412 -0.199804 0
-0.190082 -0.57044 0
0.0232728 -0.381839 0
0.289617 -0.0224742 0
0.214403 0.0443264 0
-0.0241655 -0.076522 0
-0.173919 -0.247045 0
-0.0400094 -1.20586 0
1.64406 0.916506 0
0.0878725 -0.485584 0
0.466279 -0.134352 0
0.605631 -0.683489 0
-0.341089 1.3095 0
0.872125 -0.0517001 0
-0.253159 -0.7254 0
0.41289 -0.620604 0
-1.02196 -0.898498 0
0.125081 -0.0843935 0
0.613177 -0.334558 0
0.739305 -0.892774 0
0.0202046 -0.110003 0
0.0145966 -0.566686 0
-0.552059 -0.498696 0
-0.0151774 -0.608256 0
-0.615433 -0.230884 0
-0.475996 -0.286403 0
-0.364146 -0.801213 0
-0.674137 0.114024 0
0.00786695 -1.42833 0
-0.505325 -0.569278 0
-0.482976 -1.00552 0
0.289554 -1.929 0
0.00242599 -1.37278 0
-0.276045 -0.569911 0
0.220282 -0.931255 0
0.198951 -0.931426 0
0.459252 -0.495024 0
1.33181 -0.364186 0
0.265029 -1.01622 0
0.138798 0.194162 0
-0.0411377 -1.67849 0
0.523723 -1.37882 0
-0.124279 -1.0469 0
0.2648 -1.76356 0
-0.587982 -0.554861 0
0.626112 -0.575354 0
0.459236 -0.441735 0
-1.30423 0.0167508 0
0.126752 -1.04868 0
0.266433 0.435711 0
-0.918885 -0.959129 0
0.279055 -0.229843 0
-0.174548 0.678743 0
0.0523849 -0.204666 0
-0.159852 -0.297918 0
-0.250064 0.208272 0
0.90682 -0.850432 0
0.299236 0.0342444 0
0.934712 -0.982612 0
0.910714 -0.580319 0
0.188981 -0.564489 0
-0.0745507 -0.338129 0
-0.578878 0.588133 0
-0.347558 0.121253 0
0.701979 -1.04267 0
0.259617 -1.20694 0
0.221212 -1.3288 0
0.304986 -0.937549 0
0.836369 0.46612 0
0.0888457 0.340247 0
0.752776 0.405421 0
0.550686 -0.487413 0
-0.205785 -0.750185 0
-0.259132 -0.291388 0
-0.52105 -0.287849 0
0.104477 -0.793816 0
0.661077 -0.665405 0
0.184111 0.798253 0
0.0155278 0.207309 0
0.377234 -1.65275 0
-0.169172 0.231185 0
-0.509956 0.928321 0
0.509983 -0.549772 0
0.139179 -1.14309 0
-0.144643 -0.314293 0
0.184776 0.512145 0
-0.0541078 0.179723 0
-0.338941 -0.915666 0
-0.0863677 -0.776772 0
0.35251 0.294973 0
0.106421 0.408302 0
-0.369716 -0.725208 0
-0.207185 -0.833688 0
0.114465 0.0408474 0
0.239716 0.16175 0
0.302844 -0.255012 0
0.0251744 -0.575674 0
-0.234612 -0.508287 0
-0.0129185 -0.097146 0
0.301908 0.105827 0
0.119119 -0.0944323 0
-0.192869 -0.526392 0
-0.00272765 -0.352975 0
0.317677 0.066189 0
0.256887 0.0960342 0
-0.0411037 -0.155576 0
-0.235149 -0.4159 0
-0.593599 0.231135 0
-0.0870058 -0.762804 0
-0.882673 1.03333 0
-0.0830517 -0.0331943 0
0.524502 0.164391 0
0.361144 -0.366959 0
0.111993 -0.758035 0
-0.294085 1.07467 0
0.684828 -1.02712 0
0.0659197 -1.00342 0
0.258504 -0.929301 0
0.700036 0.209598 0
-0.792516 -0.237272 0
0.900887 -0.647506 0
-0.129218 0.346148 0
0.375557 -0.935804 0
0.153446 0.176269 0
-0.0298935 -0.310705 0
-0.422709 -1.46605 0
0.139907 -0.986004 0
0.795572 -1.01919 0
1.10336 -0.865646 0
-0.2643 -0.563763 0
-0.0685438 -0.146964 0
-0.735991 -1.66211 0
-0.69354 -2.136 0
0.0191312 -0.898214 0
-0.383792 0.365186 0
0.245501 -0.0731335 0
0.805885 -1.25144 0
-0.446206 0.84954 0
0.322533 -0.261445 0
-1.12804 -0.213251 0
-1.0776 -2.01169 0
-0.0643816 -1.51452 0
1.87887 -0.00729845 0
-0.632763 -0.624018 0
-0.435477 -1.27394 0
-0.21512 0.0343999 0
0.0513063 -0.0238439 0
-0.949767 -1.44249 0
0.251817 -0.41655 0
-0.384596 0.721734 0
0.747782 -0.515547 0
-0.859201 -0.791783 0
-0.0313342 0.164975 0
-0.648844 -1.48215 0
-0.0295808 -1.09244 0
0.157916 0.880098 0
-0.0300391 0.199837 0
0.558905 0.227933 0
0.508955 -0.0282299 0
-0.72603 -0.393743 0
-0.0592998 -0.182462 0
0.401948 0.0346258 0
0.57174 -0.0449819 0
-0.0260333 -0.362824 0
-0.36908 -0.77235 0
-0.131264 -0.153488 0
-0.713236 -1.0152 0
0.831036 -0.713122 0
-0.55952 0.256484 0
-0.598716 -0.165061 0
0.178015 -0.0247498 0
0.142753 -1.79 0
0.371975 -0.522419 0
-0.739734 0.0901451 0
1.17946 -0.17875 0
0.189398 -0.239054 0
-0.381587 -1.34148 0
0.189615 0.169592 0
-0.185186 0.177068 0
-0.320728 -0.594451 0
-0.329525 -0.206533 0
0.122811 0.614737 0
0.534453 -0.79625 0
0.0466178 -0.561688 0
-0.37023 -0.322959 0
-0.0985298 0.4954 0
0.290131 0.00573227 0
-0.172511 -1.06496 0
-0.424741 -0.223894 0
0.0864872 0.464393 0
0.179487 -0.0257956 0
-0.215537 -0.70264 0
-0.166337 -0.662799 0
0.0952291 0.0575485 0
0.183873 0.231156 0
0.230503 -0.187084 0
0.0782966 -0.676719 0
-0.17546 -0.511051 0
-0.0748749 -0.00817203 0
0.243802 0.0940753 0
0.197995 -0.257223 0
-0.146546 -0.495224 0
-0.116553 -0.144736 0
0.242823 0.129007 0
0.339808 0.0316879 0
0.0842041 -0.231137 0
-0.189599 -0.4762 0
-0.496931 0.455785 0
0.565579 -0.964711 0
-0.693471 0.341261 0
-0.0341828 -1.04172 0
0.944349 -0.428334 0
0.228718 0.663852 0
-0.150427 0.328645 0
0.228655 -0.558283 0
-1.19909 0.16615 0
0.86953 -0.168192 0
-0.205754 0.740789 0
0.299602 -0.0959837 0
0.00209906 -0.469455 0
0.388911 -0.543447 0
-0.028168 -0.53908 0
0.111049 0.356927 0
-0.540698 -1.04245 0
-0.784158 -0.81832 0
-0.282156 -0.262577 0
-0.161974 -1.09961 0
0.038251 -0.786087 0
-0.193235 -0.694357 0
-0.619373 -1.2676 0
0.174669 -0.365136 0
-0.342654 -1.08921 0
0.298516 -0.764925 0
-0.364172 -0.769877 0
0.189593 -0.898589 0
0.182471 -1.30151 0
-0.100864 -1.52054 0
0.0870171 -1.31505 0
-0.472334 -0.688367 0
-0.205701 -1.63152 0
-0.333453 -1.4593 0
-1.23513 -1.20633 0
-0.422093 -0.574366 0
1.52215 0.909493 0
-0.911195 -0.566425 0
0.153029 -0.822992 0
0.0477623 -0.459109 0
0.346598 -0.104876 0
-1.33424 -0.347469 0
-0.769816 0.543207 0
0.952062 -0.648423 0
-0.375253 -1.16044 0
0.603687 -0.480835 0
0.278081 0.449387 0
-0.0708085 -0.700895 0
0.18877 -0.658419 0
0.271455 0.616723 0
-1.07665 -0.265713 0
0.184735 -1.12531 0
-0.949728 -0.0480773 0
0.0951911 -0.538361 0
0.27716 -1.32171 0
0.273964 -0.649353 0
0.493702 -0.29699 0