<?xml version='1.0' encoding='UTF-8'?>
<VTKFile byte_order='LittleEndian' version='0.1' type = 'UnstructuredGrid'>
<UnstructuredGrid>
<FieldData>
<DataArray type='Float64' Name='Time' NumberOfComponents='1' NumberOfTuples='1' format='ascii'>
4.601
</DataArray>
</FieldData>
<Piece NumberOfCells='808' NumberOfPoints='808'>
<Points>
<DataArray NumberOfComponents='3' type='Float64' Name='position' format='ascii'>
-0.00201484 -0.00174893 0
-0.00265088 0.0249012 0
-0.00945814 0.0488245 0
-0.0071515 0.0874482 0
-0.00751351 0.0950629 0
-0.000237252 0.125334 0
-0.00752124 0.150103 0
-0.00533823 0.177438 0
0.0269399 -0.00173179 0
0.0444678 -0.0062981 0
0.0746093 -0.00243694 0
0.0971091 -0.00277907 0
0.12326 -0.00288562 0
0.153998 -0.00656833 0
0.175906 -0.01305 0
0.204029 -0.0159187 0
0.207148 -0.010506 0
0.231942 -0.0152915 0
0.251653 -0.026147 0
0.296709 -0.0299744 0
0.314648 -0.0435058 0
0.334414 -0.00123058 0
0.349176 -0.557676 0
0.403771 -0.540942 0
0.4117 -0.566657 0
0.435945 -0.543256 0
0.453218 -0.562806 0
0.472492 -0.546568 0
0.522688 -0.532448 0
0.541375 -0.551465 0
0.57389 -0.551413 0
0.595491 -0.582045 0
0.619041 -0.598917 0
0.633722 -0.593826 0
0.673126 -0.579558 0
0.686444 -0.619562 0
0.722529 -0.605782 0
0.754453 -0.59636 0
0.784868 -0.648039 0
0.790821 -0.666866 0
0.812384 -0.701055 0
0.859803 -0.733816 0
0.883582 -0.732859 0
0.825447 -0.890206 0
0.952339 -0.890261 0
0.947828 -0.878684 0
1.00697 -0.884705 0
0.989213 -0.895685 0
0.999661 -0.906934 0
1.05545 -0.914459 0
1.08608 -0.898597 0
1.1255 -0.913081 0
1.13799 -1.03894 0
1.16034 -1.04153 0
1.17624 -1.04273 0
1.20556 -1.05614 0
1.24963 -1.06094 0
1.23134 -1.07608 0
1.25761 -1.07994 0
1.29972 -1.1078 0
1.30956 -1.13062 0
1.36562 -1.16997 0
1.37797 -1.17309 0
1.43528 -1.19473 0
1.42566 -1.19198 0
1.43959 -1.21188 0
1.48634 -1.20832 0
1.4951 -1.2235 0
1.54001 -1.22787 0
1.55703 -1.2583 0
1.5958 -1.27963 0
1.59887 -1.29363 0
1.61059 -1.31592 0
1.65206 -1.3075 0
1.67619 -1.31305 0
1.68644 -1.32942 0
1.72486 -1.35904 0
1.74705 -1.34411 0
1.76927 -1.36061 0
1.81519 -1.40353 0
1.83258 -1.4041 0
1.85141 -1.40049 0
1.88131 -1.40981 0
1.90541 -1.4181 0
1.92034 -1.42143 0
1.93198 -1.42666 0
1.96341 -1.43859 0
1.99707 -1.4436 0
2.02138 -1.44657 0
2.04298 -1.45314 0
2.05325 -1.45797 0
2.08932 -1.4719 0
2.12073 -1.47732 0
2.13853 -1.47416 0
2.1549 -1.47435 0
2.17882 -1.48224 0
2.20738 -1.4931 0
2.23385 -1.49415 0
2.25731 -1.49076 0
2.28008 -1.49294 0
2.30283 -1.50239 0
2.32771 -1.50962 0
2.35536 -1.51021 0
2.38193 -1.50856 0
2.40391 -1.50849 0
2.42498 -1.51042 0
2.4516 -1.5129 0
2.4825 -1.5147 0
0.0218526 0.0391124 0
0.0486619 0.0160835 0
0.0658441 0.00707765 0
0.102035 0.0134833 0
0.125246 0.0244087 0
0.164276 0.0231834 0
0.156638 0.00661803 0
0.172695 0.0158818 0
0.208897 0.0110742 0
0.242602 0.0349865 0
0.270702 0.0337926 0
0.30075 0.0353366 0
0.308371 0.0181967 0
0.32887 0.0256044 0
0.33583 -0.559926 0
0.381479 -0.508153 0
0.412738 -0.522529 0
0.425588 -0.528191 0
0.460198 -0.516097 0
0.467269 -0.53265 0
0.514501 -0.524121 0
0.547118 -0.524464 0
0.565206 -0.533214 0
0.599698 -0.532544 0
0.629343 -0.524098 0
0.657506 -0.558593 0
0.646772 -0.585985 0
0.699704 -0.562261 0
0.71409 -0.557837 0
0.745887 -0.578685 0
0.77292 -0.605672 0
0.801665 -0.648221 0
0.818398 -0.665842 0
0.870735 -0.73158 0
0.886604 -0.710185 0
0.909708 -0.73956 0
0.954383 -0.743583 0
0.93935 -0.846543 0
0.965325 -0.860649 0
0.983903 -0.84934 0
1.01372 -0.864525 0
1.03899 -0.862834 0
1.07514 -0.893944 0
1.10932 -0.896821 0
1.14619 -0.916298 0
1.1026 -0.978174 0
1.14368 -1.01352 0
1.20282 -0.988165 0
1.23985 -1.03344 0
1.24737 -1.04477 0
1.26762 -1.05435 0
1.33154 -1.0734 0
1.32513 -1.10487 0
1.35093 -1.13103 0
1.38729 -1.14208 0
1.40388 -1.13595 0
1.42492 -1.17707 0
1.44192 -1.18338 0
1.4718 -1.21208 0
1.5085 -1.21332 0
1.5457 -1.21755 0
1.56525 -1.24111 0
1.59031 -1.25346 0
1.60993 -1.27376 0
1.61949 -1.28022 0
1.65295 -1.29028 0
1.69083 -1.29437 0
1.70311 -1.30825 0
1.72467 -1.32008 0
1.75735 -1.32869 0
1.76537 -1.3389 0
1.81297 -1.36403 0
1.82842 -1.37321 0
1.84959 -1.38198 0
1.88444 -1.38313 0
1.90416 -1.38271 0
1.91851 -1.39334 0
1.9385 -1.40969 0
1.96466 -1.41672 0
1.99662 -1.41505 0
2.02306 -1.41708 0
2.03774 -1.42458 0
2.05721 -1.43677 0
2.08769 -1.44591 0
2.11663 -1.44612 0
2.13741 -1.44542 0
2.15621 -1.44958 0
2.18049 -1.4606 0
2.20782 -1.46716 0
2.23303 -1.46728 0
2.25631 -1.46516 0
2.27936 -1.4687 0
2.30361 -1.47761 0
2.32889 -1.48412 0
2.35495 -1.48495 0
2.38071 -1.48331 0
2.40432 -1.48258 0
2.42708 -1.48438 0
2.4523 -1.48865 0
2.48003 -1.49283 0
0.0244022 0.0599553 0
0.0418034 0.037858 0
0.0595853 0.0439738 0
0.0875839 0.0467306 0
0.113882 0.0383608 0
0.132876 0.0326077 0
0.172739 0.0494518 0
0.180527 0.0397136 0
0.205725 0.0611802 0
0.255262 0.0655301 0
0.270926 0.0694796 0
0.308962 0.0591328 0
0.325408 0.0548366 0
0.335885 0.0597642 0
0.382115 0.0679133 0
0.391083 -0.501372 0
0.438189 -0.502099 0
0.438212 -0.486117 0
0.451298 -0.486908 0
0.496071 -0.501395 0
0.52795 -0.483194 0
0.564154 -0.511885 0
0.575647 -0.51505 0
0.612254 -0.51932 0
0.615705 -0.502467 0
0.640852 -0.506768 0
0.676798 -0.539874 0
0.710489 -0.54582 0
0.739399 -0.549205 0
0.747557 -0.589104 0
0.783497 -0.602129 0
0.807584 -0.611434 0
0.817181 -0.616779 0
0.878469 -0.699302 0
0.868147 -0.716565 0
0.894426 -0.7262 0
0.945225 -0.712349 0
0.966357 -0.733539 0
0.987553 -0.784148 0
0.983394 -0.811399 0
1.02986 -0.833632 0
1.06068 -0.825224 0
1.06671 -0.847835 0
1.08692 -0.883671 0
1.12957 -0.888403 0
1.14743 -0.948284 0
1.17275 -0.988854 0
1.2013 -0.970731 0
1.23339 -0.990864 0
1.25052 -1.02578 0
1.28627 -1.02744 0
1.3154 -1.06886 0
1.3502 -1.06503 0
1.34209 -1.10382 0
1.372 -1.11399 0
1.41609 -1.12846 0
1.43526 -1.12763 0
1.45148 -1.15146 0
1.47616 -1.18371 0
1.52295 -1.20838 0
1.5336 -1.21077 0
1.5476 -1.19897 0
1.5841 -1.21696 0
1.6043 -1.22474 0
1.6209 -1.25653 0
1.65003 -1.25454 0
1.6661 -1.28375 0
1.71762 -1.26976 0
1.73263 -1.29725 0
1.75071 -1.3173 0
1.76759 -1.31018 0
1.80009 -1.32287 0
1.83211 -1.35139 0
1.85485 -1.36082 0
1.87688 -1.35357 0
1.90419 -1.35369 0
1.92398 -1.36993 0
1.9396 -1.38885 0
1.96521 -1.39212 0
1.99579 -1.38445 0
2.01982 -1.38977 0
2.03937 -1.4049 0
2.06041 -1.41432 0
2.08593 -1.41773 0
2.11396 -1.41753 0
2.13763 -1.41774 0
2.15707 -1.42583 0
2.18033 -1.43794 0
2.20844 -1.44269 0
2.23388 -1.43953 0
2.25521 -1.4391 0
2.27823 -1.44557 0
2.30394 -1.45256 0
2.32982 -1.45816 0
2.35505 -1.45971 0
2.38003 -1.45833 0
2.40467 -1.45715 0
2.4287 -1.45888 0
2.45292 -1.46381 0
2.47802 -1.46876 0
0.0230109 0.070641 0
0.0453302 0.0820842 0
0.0818982 0.0734043 0
0.0738229 0.0835519 0
0.127633 0.0783071 0
0.140881 0.0564949 0
0.160995 0.0664242 0
0.189785 0.0840671 0
0.233459 0.0863118 0
0.267082 0.0911769 0
0.311938 0.087441 0
0.323847 0.0650572 0
0.317871 0.108179 0
0.349614 0.112358 0
0.368445 0.12193 0
0.384657 -0.466682 0
0.413869 -0.46406 0
0.446364 -0.475056 0
0.446515 -0.455031 0
0.498406 -0.461731 0
0.493228 -0.490077 0
0.577735 -0.445875 0
0.576609 -0.47931 0
0.59559 -0.496321 0
0.629119 -0.480711 0
0.654768 -0.495256 0
0.671239 -0.506116 0
0.702133 -0.539028 0
0.739739 -0.533585 0
0.749262 -0.540185 0
0.758031 -0.578878 0
0.788252 -0.581837 0
0.82841 -0.602451 0
0.831271 -0.642445 0
0.886276 -0.668085 0
0.917495 -0.695762 0
0.929905 -0.682697 0
0.974832 -0.704815 0
0.992542 -0.755407 0
1.0043 -0.786257 0
1.02221 -0.793748 0
1.0509 -0.823135 0
1.08423 -0.838377 0
1.11621 -0.847492 0
1.14013 -0.856939 0
1.12478 -0.897307 0
1.17437 -0.953497 0
1.20487 -0.948647 0
1.22997 -0.957715 0
1.26561 -0.981516 0
1.27148 -0.990202 0
1.31189 -1.02365 0
1.33919 -1.03936 0
1.36498 -1.06905 0
1.37575 -1.08984 0
1.39781 -1.10001 0
1.45113 -1.0941 0
1.44298 -1.1141 0
1.47403 -1.1405 0
1.52128 -1.14481 0
1.53265 -1.16079 0
1.57341 -1.18685 0
1.58717 -1.20019 0
1.59376 -1.21022 0
1.63002 -1.22061 0
1.65146 -1.24362 0
1.67031 -1.25646 0
1.70591 -1.25477 0
1.7473 -1.26557 0
1.74927 -1.28792 0
1.76889 -1.29562 0
1.80249 -1.29123 0
1.83032 -1.31923 0
1.85398 -1.34171 0
1.87557 -1.32542 0
1.90085 -1.32549 0
1.92682 -1.35054 0
1.9441 -1.36394 0
1.96322 -1.36268 0
1.99361 -1.36035 0
2.02104 -1.36575 0
2.04015 -1.38098 0
2.06074 -1.39063 0
2.08559 -1.39071 0
2.1123 -1.38867 0
2.13731 -1.39224 0
2.15873 -1.40277 0
2.18089 -1.41337 0
2.20747 -1.41615 0
2.23369 -1.41339 0
2.25559 -1.41391 0
2.27794 -1.42118 0
2.30393 -1.42824 0
2.33027 -1.43228 0
2.35494 -1.43325 0
2.37953 -1.4326 0
2.40494 -1.43231 0
2.42989 -1.43404 0
2.45346 -1.43816 0
2.4765 -1.4422 0
0.0246016 0.0916623 0
0.0559383 0.105898 0
0.0663783 0.106238 0
0.0944558 0.086897 0
0.135489 0.105127 0
0.132896 0.093316 0
0.159211 0.0930754 0
0.213947 0.111154 0
0.241423 0.123073 0
0.239733 0.11161 0
0.280934 0.118704 0
0.310598 0.120234 0
0.326974 0.124179 0
0.362683 0.137833 0
0.395005 0.147958 0
0.398715 0.165539 0
0.421579 -0.426949 0
0.443555 -0.438275 0
0.457416 -0.445864 0
0.498335 -0.446182 0
0.51745 -0.456051 0
0.553724 -0.443055 0
0.575189 -0.455724 0
0.596475 -0.453664 0
0.634052 -0.461606 0
0.669124 -0.442832 0
0.643571 -0.48312 0
0.723464 -0.49774 0
0.718473 -0.518846 0
0.746937 -0.513228 0
0.76678 -0.542467 0
0.815899 -0.56352 0
0.836196 -0.565941 0
0.863059 -0.607242 0
0.887367 -0.6155 0
0.920886 -0.64788 0
0.939498 -0.665056 0
0.963293 -0.689517 0
0.984181 -0.712983 0
1.00166 -0.751299 0
1.01004 -0.769615 0
1.05896 -0.792852 0
1.08766 -0.808775 0
1.11042 -0.833481 0
1.12727 -0.827196 0
1.15748 -0.86529 0
1.18017 -0.915788 0
1.20329 -0.923783 0
1.22502 -0.966579 0
1.24306 -0.973966 0
1.26489 -0.955852 0
1.31267 -0.98941 0
1.34484 -1.02933 0
1.37462 -1.03441 0
1.38157 -1.0639 0
1.39901 -1.08239 0
1.42134 -1.07748 0
1.46597 -1.06532 0
1.49273 -1.11129 0
1.51262 -1.12014 0
1.52615 -1.12413 0
1.55849 -1.13578 0
1.57728 -1.16175 0
1.60627 -1.17552 0
1.631 -1.18332 0
1.65398 -1.22893 0
1.66798 -1.23558 0
1.70321 -1.21876 0
1.73035 -1.24762 0
1.76077 -1.26237 0
1.77144 -1.26113 0
1.80844 -1.27311 0
1.83309 -1.29673 0
1.84771 -1.30411 0
1.87309 -1.30181 0
1.90317 -1.30794 0
1.92661 -1.32381 0
1.94509 -1.335 0
1.96519 -1.33708 0
1.99171 -1.33558 0
2.01972 -1.3437 0
2.04236 -1.356 0
2.06159 -1.36264 0
2.08373 -1.36415 0
2.11122 -1.36387 0
2.13822 -1.36771 0
2.1597 -1.37768 0
2.18101 -1.38839 0
2.20671 -1.38966 0
2.23303 -1.3865 0
2.25612 -1.38952 0
2.27878 -1.39798 0
2.30419 -1.40399 0
2.32982 -1.40575 0
2.35419 -1.40612 0
2.37918 -1.40689 0
2.40539 -1.40822 0
2.43081 -1.41029 0
2.45377 -1.41293 0
2.47549 -1.41475 0
0.029097 0.121519 0
0.0408224 0.154339 0
0.0610165 0.142186 0
0.0928582 0.123441 0
0.116801 0.13155 0
0.150718 0.112391 0
0.178266 0.137305 0
0.193931 0.122201 0
0.224822 0.147572 0
0.267354 0.154922 0
0.292799 0.155619 0
0.30094 0.175519 0
0.328714 0.193833 0
0.369503 0.18521 0
0.404984 0.209617 0
0.413936 0.195211 0
0.423866 0.198855 0
0.442653 -0.402014 0
0.463643 -0.412078 0
0.483868 -0.448039 0
0.522327 -0.446022 0
0.546083 -0.421727 0
0.579298 -0.434359 0
0.61133 -0.408514 0
0.644341 -0.419107 0
0.63909 -0.432883 0
0.682561 -0.426163 0
0.704497 -0.469375 0
0.735007 -0.450938 0
0.760351 -0.469566 0
0.757025 -0.508037 0
0.799624 -0.528494 0
0.83544 -0.530078 0
0.850118 -0.559153 0
0.870162 -0.587533 0
0.903204 -0.600879 0
0.921935 -0.63053 0
0.955689 -0.661493 0
0.97835 -0.671922 0
1.0123 -0.712941 0
1.00803 -0.730326 0
1.05114 -0.76627 0
1.07043 -0.797592 0
1.10237 -0.802602 0
1.13597 -0.816714 0
1.16097 -0.832621 0
1.1596 -0.893839 0
1.18087 -0.904994 0
1.22697 -0.947861 0
1.27111 -0.940789 0
1.27994 -0.951468 0
1.32332 -0.968179 0
1.3543 -0.985421 0
1.3714 -0.995456 0
1.38643 -1.04511 0
1.4049 -1.0553 0
1.42999 -1.06487 0
1.4628 -1.04353 0
1.48251 -1.07101 0
1.5117 -1.10384 0
1.54099 -1.0981 0
1.56307 -1.11776 0
1.57426 -1.13122 0
1.60313 -1.14887 0
1.62953 -1.15933 0
1.65244 -1.19337 0
1.67568 -1.21061 0
1.70152 -1.20131 0
1.73377 -1.21342 0
1.75427 -1.22981 0
1.77864 -1.23976 0
1.80912 -1.25509 0
1.83225 -1.26687 0
1.84823 -1.2699 0
1.87205 -1.27669 0
1.90213 -1.28959 0
1.92668 -1.30069 0
1.94628 -1.30577 0
1.96675 -1.30842 0
1.99071 -1.3136 0
2.01773 -1.32046 0
2.04342 -1.3286 0
2.06314 -1.33474 0
2.08271 -1.33708 0
2.10975 -1.34034 0
2.1387 -1.34482 0
2.16131 -1.35271 0
2.18076 -1.35957 0
2.20511 -1.36217 0
2.23258 -1.36286 0
2.25734 -1.36668 0
2.28028 -1.37335 0
2.30425 -1.37845 0
2.32862 -1.37943 0
2.35303 -1.37936 0
2.37904 -1.3813 0
2.40635 -1.38472 0
2.43188 -1.38756 0
2.45389 -1.38862 0
2.47476 -1.38816 0
0.0316843 0.17196 0
0.0577071 0.159754 0
0.0752981 0.164034 0
0.11427 0.156586 0
0.13186 0.168233 0
0.157048 0.15091 0
0.167739 0.161887 0
0.18488 0.159783 0
0.227093 0.162619 0
0.260665 0.177951 0
0.285751 0.191547 0
0.322816 0.204831 0
0.339013 0.199564 0
0.348543 0.206279 0
0.398902 0.230375 0
0.404836 0.221892 0
0.783278 -0.0255235 0
0.450143 -0.376784 0
0.46463 -0.377357 0
0.498271 -0.388719 0
0.517913 -0.425639 0
0.545893 -0.411729 0
0.574592 -0.416724 0
0.59443 -0.406473 0
0.646563 -0.399842 0
0.658675 -0.371016 0
0.672189 -0.379128 0
0.708142 -0.396944 0
0.745581 -0.404804 0
0.761848 -0.456255 0
0.780239 -0.514951 0
0.792573 -0.515661 0
0.845009 -0.523989 0
0.855589 -0.525103 0
0.869 -0.532086 0
0.916117 -0.57995 0
0.928241 -0.597325 0
0.948567 -0.671473 0
0.988745 -0.674762 0
1.00713 -0.687827 0
1.03212 -0.705962 0
1.04412 -0.727654 0
1.08304 -0.77154 0
1.09177 -0.785388 0
1.12841 -0.808694 0
1.14933 -0.814086 0
1.17128 -0.856123 0
1.21286 -0.878501 0
1.23203 -0.911666 0
1.25578 -0.932764 0
1.30074 -0.955433 0
1.33268 -0.959376 0
1.35923 -0.976553 0
1.37069 -0.983206 0
1.39228 -1.00652 0
1.40097 -1.01369 0
1.43026 -1.01813 0
1.47159 -1.02613 0
1.49147 -1.03818 0
1.51873 -1.06862 0
1.53784 -1.06797 0
1.5674 -1.09674 0
1.59661 -1.13163 0
1.60681 -1.12831 0
1.63715 -1.14137 0
1.65562 -1.15274 0
1.68064 -1.1814 0
1.69528 -1.18528 0
1.72857 -1.1857 0
1.7581 -1.19151 0
1.77654 -1.22042 0
1.80708 -1.23503 0
1.83513 -1.23898 0
1.85302 -1.23501 0
1.87135 -1.24963 0
1.89893 -1.27469 0
1.92686 -1.27912 0
1.94847 -1.27369 0
1.96623 -1.27836 0
1.98842 -1.29081 0
2.01737 -1.29811 0
2.04491 -1.30202 0
2.0639 -1.30455 0
2.08208 -1.31005 0
2.10869 -1.31841 0
2.13879 -1.32369 0
2.16234 -1.32589 0
2.18081 -1.32925 0
2.20355 -1.33461 0
2.23155 -1.34017 0
2.25882 -1.34439 0
2.28252 -1.34894 0
2.30423 -1.35127 0
2.32664 -1.35246 0
2.35146 -1.35352 0
2.37942 -1.35661 0
2.40818 -1.36152 0
2.43337 -1.36463 0
2.45393 -1.36422 0
2.47364 -1.36216 0
0.0147697 0.174895 0
0.0407426 0.181045 0
0.0933847 0.185477 0
0.103801 0.176017 0
0.117141 0.182308 0
0.151776 0.167505 0
0.163641 0.192063 0
0.18424 0.179277 0
0.22095 0.180471 0
0.251053 0.213211 0
0.278942 0.225985 0
0.299698 0.219962 0
0.322429 0.254773 0
0.350472 0.226479 0
0.407337 0.239391 0
0.398629 0.25782 0
0.415582 0.264939 0
0.426578 -0.342018 0
0.469588 -0.360687 0
0.482504 -0.304002 0
0.552756 -0.205915 0
0.601064 -0.238824 0
0.562714 -0.400359 0
0.580258 -0.401087 0
0.610849 -0.38805 0
0.644687 -0.345543 0
0.687688 -0.36226 0
0.705055 -0.358803 0
0.728484 -0.374899 0
0.736043 -0.393033 0
0.755467 -0.403295 0
0.798176 -0.495057 0
0.816968 -0.513551 0
0.839443 -0.503807 0
0.883072 -0.53817 0
0.903321 -0.559929 0
0.940446 -0.560206 0
0.967358 -0.580154 0
1.25636 -0.521359 0
1.00473 -0.642108 0
1.01929 -0.669758 0
1.03892 -0.682187 0
1.06315 -0.711906 0
1.09583 -0.720578 0
1.11613 -0.803577 0
1.11859 -0.821396 0
1.13137 -0.795815 0
1.20932 -0.862927 0
1.22544 -0.899971 0
1.25655 -0.890999 0
1.29954 -0.897195 0
1.30362 -0.921598 0
1.3334 -0.943126 0
1.36129 -0.966347 0
1.39384 -0.992496 0
1.41646 -0.991322 0
1.43754 -0.973763 0
1.4836 -0.986748 0
1.49561 -1.02786 0
1.50625 -1.03828 0
1.53284 -1.01361 0
1.56939 -1.06039 0
1.58421 -1.09067 0
1.60633 -1.1134 0
1.63833 -1.11624 0
1.65996 -1.13608 0
1.67136 -1.14009 0
1.702 -1.17601 0
1.7313 -1.16713 0
1.75024 -1.15384 0
1.77604 -1.18857 0
1.80638 -1.22445 0
1.83656 -1.20999 0
1.85851 -1.19932 0
1.87211 -1.2273 0
1.89449 -1.25753 0
1.92732 -1.25807 0
1.95184 -1.24327 0
1.9643 -1.2465 0
1.9844 -1.26757 0
2.01824 -1.27924 0
2.0479 -1.27386 0
2.06439 -1.27285 0
2.08028 -1.28458 0
2.10763 -1.29763 0
2.13962 -1.30111 0
2.16363 -1.29826 0
2.18038 -1.29859 0
2.20143 -1.30738 0
2.23083 -1.31846 0
2.26098 -1.32351 0
2.28492 -1.32299 0
2.30368 -1.32286 0
2.32388 -1.32504 0
2.34959 -1.3285 0
2.38033 -1.33354 0
2.41082 -1.33862 0
2.43531 -1.34061 0
2.45382 -1.33849 0
2.47137 -1.33486 0
</DataArray>
</Points>
<PointData>
<DataArray NumberOfComponents='1' type='Int32' Name='Particle Type' format='ascii'>
0
0
0
0
0
0
0
0
0
0
0
0
0
0
0
0
0
0
0
0
0
0
1
1
1
1
1
1
1
1
1
1
1
1
1
1
1
1
1
1
1
1
1
1
1
1
1
1
1
1
1
1
1
1
1
1
1
1
1
1
1
1
1
1
1
1
1
1
1
1
1
1
1
1
1
1
1
1
1
1
1
1
1
1
1
1
1
1
1
1
1
1
1
1
1
1
1
1
1
1
1
1
1
1
1
1
1
1
1
1
1
1
1
1
1
1
1
1
1
1
1
1
1
1
1
1
1
1
1
1
1
1
1
1
1
1
1
1
1
1
1
1
1
1
1
1
1
1
1
1
1
1
1
1
1
1
1
1
1
1
1
1
1
1
1
1
1
1
1
1
1
1
1
1
1
1
1
1
1
1
1
1
1
1
1
1
1
1
1
1
1
1
1
1
1
1
1
1
1
1
1
1
1
1
1
1
1
1
1
1
1
1
1
1
1
1
1
1
1
1
1
1
1
1
1
1
1
1
1
1
1
1
1
1
1
1
1
1
1
1
1
1
1
1
1
1
1
1
1
1
1
1
1
1
1
1
1
1
1
1
1
1
1
1
1
1
1
1
1
1
1
1
1
1
1
1
1
1
1
1
1
1
1
1
1
1
1
1
1
1
1
1
1
1
1
1
1
1
1
1
1
1
1
1
1
1
1
1
1
1
1
1
1
1
1
1
1
1
1
1
1
1
1
1
1
1
1
1
1
1
1
1
1
1
1
1
1
1
1
1
1
1
1
1
1
1
1
1
1
1
1
1
1
1
1
1
1
1
1
1
1
1
1
1
1
1
1
1
1
1
1
1
1
1
1
1
1
1
1
1
1
1
1
1
1
1
1
1
1
1
1
1
1
1
1
1
1
1
1
1
1
1
1
1
1
1
1
1
1
1
1
1
1
1
1
1
1
1
1
1
1
1
1
1
1
1
1
1
1
1
1
1
1
1
1
1
1
1
1
1
1
1
1
1
1
1
1
1
1
1
1
1
1
1
1
1
1
1
1
1
1
1
1
1
1
1
1
1
1
1
1
1
1
1
1
1
1
1
1
1
1
1
1
1
1
1
1
1
1
1
1
1
1
1
1
1
1
1
1
1
1
1
1
1
1
1
1
1
1
1
1
1
1
1
1
1
1
1
1
1
1
1
1
1
1
1
1
1
1
1
1
1
1
1
1
1
1
1
1
1
1
1
1
1
1
1
1
1
1
1
1
1
1
1
1
1
1
1
1
1
1
1
1
1
1
1
1
1
1
1
1
1
1
1
1
1
1
1
1
1
1
1
1
1
1
1
1
1
1
1
1
1
1
1
1
1
1
1
1
1
1
1
1
1
1
1
1
1
1
1
1
1
1
1
1
1
1
1
1
1
1
1
1
1
1
1
1
1
1
1
1
1
1
1
1
1
1
1
1
1
1
1
1
1
1
1
1
1
1
1
1
1
1
1
1
1
1
1
1
1
1
1
1
1
1
1
1
1
1
1
1
1
1
1
1
1
1
1
1
1
1
1
1
1
1
1
1
1
1
1
1
1
1
1
1
1
1
1
1
1
1
1
1
1
1
1
1
1
1
1
1
1
1
1
1
1
1
1
1
1
1
1
1
1
1
1
1
1
1
1
1
1
1
1
1
1
1
1
1
1
1
1
1
1
1
1
1
1
1
1
1
1
1
1
1
1
1
1
1
1
1
1
1
1
1
1
1
1
1
1
1
1
1
1
1
1
1
1
1
1
1
1
1
1
1
1
1
1
1
1
1
1
1
1
1
1
1
1
1
1
1
1
1
1
1
1
1
1
</DataArray>
<DataArray NumberOfComponents='3' type='Float64' Name='Velocity' format='ascii'>
-0.735997 -0.2641 0
-0.58728 0.035594 0
-1.07722 -0.0829008 0
-0.620877 0.952867 0
-0.788915 -0.18557 0
-0.00889386 0.467799 0
-1.28465 -0.0832856 0
-0.772271 0.333739 0
0.598271 -0.455134 0
-0.569497 -1.09535 0
0.136195 -0.516678 0
-0.242944 -0.465911 0
-0.409616 -0.181202 0
0.376891 -0.837306 0
0.0480942 -1.01038 0
-0.425703 -0.836261 0
-0.272176 -0.263387 0
0.0826538 -0.639002 0
-0.855123 -0.261107 0
0.918981 -0.937343 0
0.0245939 -0.7824 0
-0.237096 -0.00100366 0
0.323478 -0.561637 0
0.791964 -0.0644069 0
-0.0325489 0.157642 0
-0.0527433 -0.809604 0
0.184662 -0.338967 0
-0.0590672 -0.733015 0
-1.59513 -1.13202 0
-0.548691 -1.21431 0
-0.563346 -1.51287 0
0.27701 -0.104111 0
-0.675831 -1.36572 0
0.235466 -0.1801 0
-0.0701859 -0.503439 0
-0.0672582 1.23954 0
-0.537305 -0.0434044 0
-0.0122456 0.0506787 0
0.487977 -0.354252 0
0.248944 0.996278 0
-0.170564 0.519801 0
-0.635763 -0.518431 0
0.137194 -0.839325 0
-0.511353 -1.01302 0
0.595873 -0.428714 0
0.117702 -0.319604 0
0.435526 -0.440014 0
0.183314 0.455403 0
-0.667597 0.00351384 0
0.126017 -0.464565 0
0.176814 -1.18202 0
0.80723 -0.285235 0
-0.506322 0.0263791 0
0.800125 -1.833 0
0.26409 -0.130412 0
-0.698317 -1.1606 0
0.245912 -1.01951 0
-0.00320682 -1.15932 0
0.823406 0.879251 0
-0.174543 -0.189041 0
0.409655 0.821778 0
-0.406741 0.104627 0
-0.504494 -0.722004 0
0.869173 -0.523413 0
0.830081 -0.560803 0
-0.441147 -0.876774 0
-0.0125187 -0.0839198 0
0.0807168 -1.1854 0
0.187707 -0.11675 0
-0.164969 0.0909784 0
-0.0223977 -0.134763 0
0.770837 -0.486304 0
-0.194208 -0.27117 0
-0.452478 -0.754108 0
-0.061474 -0.499482 0
0.262585 0.472753 0
-0.4347 -0.560667 0
0.226196 -0.77203 0
-0.460018 0.568979 0
-0.297642 -0.0798375 0
0.34476 -0.798395 0
-0.05759 -0.472919 0
-0.0884879 -0.261961 0
0.140906 -0.426895 0
0.373199 -0.460784 0
0.115073 -0.182439 0
-0.361976 -0.0929245 0
-0.129243 -0.343071 0
0.0519889 -0.32032 0
0.662697 -0.489069 0
-0.120883 -0.0874697 0
-0.391293 -0.107427 0
-0.0239222 -0.414905 0
0.282713 -0.491554 0
0.158586 -0.295112 0
-0.0746245 -0.0620013 0
-0.126905 -0.144236 0
-0.0284947 -0.381454 0
0.0579596 -0.334834 0
0.0770498 -0.130455 0
0.0110234 -0.0871851 0
-0.149471 -0.295737 0
-0.213226 -0.414337 0
-0.0431282 -0.308768 0
0.218222 -0.121013 0
0.247466 -0.0734426 0
-0.0112211 -0.198177 0
-0.266 -0.298947 0
0.273196 0.629016 0
-0.101738 -0.347518 0
0.575073 -0.488392 0
-0.128706 0.639046 0
-0.0590253 -0.311698 0
-0.64437 -0.418078 0
-0.0348819 0.0434923 0
-0.437121 -0.872765 0
-0.0810685 -0.237071 0
0.00841963 -0.646095 0
-0.147287 0.701112 0
-0.169788 0.250089 0
0.161864 1.23488 0
-0.390034 -0.900524 0
-0.582125 -1.90746 0
0.125784 -1.22855 0
0.125349 -0.284813 0
1.44381 0.240501 0
0.826095 -0.579867 0
0.271337 0.116759 0
-0.698968 -1.58936 0
-0.850181 -1.67802 0
0.725899 -1.2444 0
-0.132665 -0.920829 0
0.438846 -1.11623 0
-0.343626 -0.85671 0
-0.520662 -0.974123 0
-0.380352 -0.739122 0
0.402012 -0.643907 0
0.152461 -0.376393 0
0.0474378 -0.0691204 0
0.847646 0.241523 0
1.00168 -0.0575508 0
-0.511994 0.289163 0
-0.659636 -0.887049 0
-0.0757 0.0930194 0
-0.454652 0.127257 0
0.913626 -0.904793 0
-0.532501 -0.7409 0
-0.392424 -0.133333 0
-0.607465 -0.466212 0
0.367636 -0.0561862 0
0.133733 -0.0386463 0
-0.323432 0.181225 0
1.00485 -0.366584 0
1.12404 -0.0979537 0
-0.428804 -0.0899037 0
0.39114 -1.25076 0
-0.731139 0.479711 0
-1.02867 -1.24734 0
-0.346658 -1.33816 0
0.160572 0.10428 0
0.348814 0.374495 0
-0.083165 0.0538916 0
-0.145733 -0.470215 0
-0.0341439 -0.198151 0
-0.963061 0.514237 0
0.568973 0.671538 0
-0.13491 -0.385118 0
0.0218951 0.0723808 0
-0.150725 -0.807116 0
0.41955 -0.13675 0
-0.0376341 -0.320422 0
0.74233 -0.243152 0
-0.00114206 -0.771013 0
-0.449828 -0.411792 0
0.19659 -0.373743 0
0.940704 -0.11577 0
-0.607448 -0.335746 0
0.309399 -0.455994 0
-0.128233 0.0149574 0
-0.409681 -0.0643836 0
0.434417 -0.41139 0
-0.26669 -0.404334 0
-0.130374 -0.62835 0
0.329959 -0.417665 0
0.21359 -0.0314078 0
-0.00526085 -0.0742319 0
-0.180355 -0.420974 0
-0.199375 -0.500583 0
0.228583 -0.368379 0
0.366127 -0.190767 0
-0.0134258 -0.111916 0
-0.224227 -0.3138 0
-0.0271899 -0.449481 0
0.18065 -0.37495 0
0.100148 -0.137605 0
-0.0687858 -0.0928613 0
-0.0709935 -0.260353 0
0.00395883 -0.372443 0
0.0488268 -0.300787 0
0.0289372 -0.11478 0
-0.0374058 -0.102351 0
-0.102285 -0.277166 0
-0.121675 -0.380814 0
-0.0228344 -0.304804 0
0.138106 -0.160023 0
0.157626 -0.0810358 0
-0.0154739 -0.137578 0
-0.201133 -0.270838 0
0.502298 1.55377 0
-0.165944 0.716674 0
0.554698 0.721458 0
0.208433 -0.268709 0
-0.450612 -0.335782 0
-0.420827 -1.43244 0
0.612137 -0.254743 0
0.120444 0.358905 0
-0.710423 -0.240136 0
0.21252 0.278621 0
0.998901 1.02651 0
-0.106498 -0.345593 0
0.810479 0.0130137 0
-0.432338 0.837577 0
0.172372 0.64369 0
0.47898 -1.01664 0
-0.231053 -1.18713 0
-0.349472 -0.808961 0
0.193484 -1.37665 0
-1.41431 -1.45456 0
0.775435 -0.964618 0
0.352787 -1.10593 0
0.313205 -0.131382 0
0.0810873 -0.623347 0
0.498466 -1.08625 0
-0.109084 -0.25168 0
0.577653 -0.949394 0
-0.822448 -0.00251458 0
0.451764 -0.163811 0
0.0647389 0.210614 0
-0.0530152 0.920932 0
0.0338134 0.0178294 0
0.415459 -0.0158384 0
-0.687491 -0.657153 0
0.0343798 -0.6647 0
-0.446203 -0.351252 0
0.027612 -0.816861 0
0.0781956 -0.573857 0
-0.522692 -0.932642 0
0.19353 0.151175 0
0.306971 1.22902 0
0.838769 -1.07719 0
0.120618 0.226372 0
-0.453069 0.105231 0
-0.51999 -0.443923 0
-1.05186 -0.446359 0
0.424338 -0.813736 0
-0.230017 -0.732813 0
0.0468766 -0.459703 0
-0.567185 -0.919242 0
-0.496586 -0.728708 0
-0.0836119 -1.1129 0
-0.260245 -0.190948 0
0.563904 -0.615004 0
-1.23544 -0.901915 0
0.418253 -0.835799 0
0.956155 -0.735672 0
-0.177985 -0.0123808 0
-0.732987 -0.111753 0
-0.62919 -0.0773409 0
-0.359959 -0.526523 0
0.149528 -0.0735329 0
-0.27086 -0.397629 0
0.121068 -0.0777101 0
-0.0282985 0.425547 0
0.396431 -0.285082 0
-0.546446 -0.43672 0
-0.328623 -0.694139 0
0.326372 0.507695 0
0.48121 -0.657839 0
0.0154576 -0.755827 0
-0.29854 0.157518 0
-0.165552 0.0498392 0
0.125118 -0.667724 0
-0.0402004 -0.78486 0
-0.0165727 -0.27935 0
0.275487 0.101297 0
0.144133 -0.0948466 0
-0.18059 -0.657463 0
-0.0869694 -0.550756 0
0.143574 -0.0773083 0
0.179038 -0.0459798 0
0.0689935 -0.304272 0
-0.0934917 -0.40923 0
-0.0782454 -0.447563 0
0.114927 -0.279741 0
0.120043 -0.0263586 0
-0.0730759 -0.0866281 0
-0.116042 -0.364865 0
0.0508809 -0.435466 0
0.0961282 -0.20763 0
-0.0122732 -0.118489 0
-0.0775666 -0.170254 0
-0.0811932 -0.253138 0
-0.0564011 -0.328775 0
1.55984e-06 -0.29034 0
0.0748372 -0.18107 0
0.0856954 -0.109304 0
-0.0247341 -0.167834 0
-0.170976 -0.305968 0
-0.587834 -0.966196 0
0.234152 -0.948922 0
0.744789 0.181711 0
0.103709 -0.00229501 0
-0.224229 -0.194498 0
-0.473846 -0.656927 0
0.167653 0.587249 0
0.359114 -0.0824072 0
0.915484 0.515735 0
0.322128 0.907009 0
-0.315523 0.864836 0
0.030685 0.211224 0
-1.12761 0.584632 0
1.35846 -0.362765 0
-0.020707 0.453367 0
-0.503476 -1.01092 0
-0.457198 -0.932332 0
1.146 -0.52662 0
-0.314114 -0.179032 0
0.460901 -0.709237 0
-0.694109 -0.842228 0
-0.66993 -1.10265 0
-0.136209 -0.187538 0
0.616603 -1.02275 0
-0.755923 -0.404192 0
0.942146 -0.400437 0
-0.401576 -0.901088 0
-0.89099 -0.529302 0
-0.236098 0.859712 0
0.240835 0.724129 0
0.576385 0.292966 0
0.829725 -0.908842 0
-0.798853 -1.05512 0
0.175249 -0.547525 0
-0.305231 -0.809863 0
-0.0460393 -0.458452 0
-0.0764906 -0.392322 0
0.161925 0.317706 0
-0.609108 -0.549683 0
0.216323 -0.526012 0
0.00419789 -0.128015 0
0.938818 -0.556683 0
0.0173524 -0.94114 0
0.0537005 -0.0484807 0
0.303727 -1.27596 0
-0.439594 -0.453104 0
0.664472 0.165172 0
-0.258631 0.208423 0
0.290401 -0.620662 0
-0.603532 -0.0735056 0
-0.330186 -0.265335 0
-0.679278 0.27266 0
0.0724417 -0.189131 0
0.379474 -0.301232 0
0.290794 -0.179122 0
0.0531636 -1.00199 0
-0.106194 -0.778352 0
0.395761 -0.122354 0
-0.351755 -0.900513 0
0.682498 -0.633378 0
0.390009 0.131124 0
-0.758822 -0.211064 0
0.533726 -0.16276 0
0.683981 -0.651672 0
-0.217352 -0.40411 0
0.167465 0.0829045 0
-0.0638867 -0.648786 0
-0.655996 -0.469483 0
0.204457 -0.174511 0
0.724724 -0.00908741 0
-0.131567 -0.790295 0
-0.201382 -0.397726 0
-0.0709382 0.478236 0
0.0425468 -0.607459 0
0.0694919 -1.09449 0
-0.0826926 -0.0458684 0
0.0744852 0.19401 0
0.287855 -0.385497 0
-0.0199047 -0.588339 0
-0.204306 -0.448052 0
0.0834606 -0.110785 0
0.205955 -0.0189129 0
0.0706911 -0.338644 0
-0.0501059 -0.553188 0
-0.0629879 -0.375434 0
0.041933 -0.151828 0
0.098962 0.00773198 0
-0.0108629 -0.171457 0
-0.102506 -0.387852 0
0.010762 -0.419491 0
0.0997734 -0.205755 0
-0.00120601 -0.111133 0
-0.0964047 -0.195591 0
-0.0688895 -0.275632 0
-0.0181568 -0.293003 0
0.0038832 -0.227688 0
0.028664 -0.159035 0
0.0392359 -0.149506 0
-0.0247284 -0.225758 0
-0.136003 -0.345926 0
0.468581 0.0336057 0
0.5409 -0.163446 0
0.779065 -0.0341043 0
-0.451064 0.812057 0
0.149882 -0.527482 0
0.242369 0.261423 0
0.369738 0.495707 0
0.0661709 -0.148229 0
-0.657571 0.153523 0
0.17436 0.660802 0
-0.828885 0.520711 0
-0.226782 1.20507 0
0.0166061 0.261084 0
-0.818819 0.632154 0
-0.109976 -0.249072 0
0.278818 -0.289613 0
-0.331184 -1.59756 0
0.353234 -1.29628 0
1.02722 -0.197136 0
-0.761077 -0.726573 0
0.266338 -1.48771 0
0.677729 -0.282758 0
1.59217 -1.15547 0
0.384019 -0.312212 0
0.0728661 -0.558193 0
-0.442238 -0.861352 0
0.0225742 -0.0404019 0
-0.51055 -1.86653 0
0.0299426 -0.530804 0
-0.308118 -0.561336 0
-0.149104 -0.524071 0
1.0573 -0.289691 0
-0.0802462 -0.802448 0
-1.31421 0.0353033 0
0.336886 0.305915 0
0.324194 -0.715558 0
-0.494735 -0.636949 0
-0.452835 -0.916068 0
-0.0435118 -0.49561 0
-0.265705 -1.00317 0
0.211408 -0.333178 0
-0.15949 -0.279794 0
-0.327874 0.228654 0
0.599022 -0.972528 0
0.270126 -0.273138 0
0.22441 -1.13533 0
0.227439 0.658543 0
-0.0412785 -1.0071 0
-0.299327 -0.271592 0
0.636564 -0.267222 0
0.285929 0.077584 0
-0.836725 0.0941474 0
0.200596 -1.33817 0
0.279056 0.0987648 0
-0.0425243 -0.437731 0
-0.413507 -0.115501 0
0.385962 -1.30664 0
0.224711 -0.277305 0
-0.666509 0.477619 0
0.129011 -0.642494 0
0.755935 -0.653607 0
0.0106286 -0.747203 0
-0.466727 0.0570908 0
-0.00772125 -0.358754 0
-0.0971192 0.360142 0
-0.0113762 0.15042 0
0.657948 -0.91978 0
-0.251611 -0.570939 0
-0.255725 0.417836 0
0.352931 -0.62509 0
-0.140154 -0.633037 0
-0.282554 0.0245289 0
0.268933 -0.10591 0
0.168864 -0.633211 0
-0.178085 -0.58365 0
-0.0838601 -0.210475 0
0.140312 -0.0640108 0
0.202068 -0.282204 0
0.0345736 -0.529095 0
-0.120942 -0.385081 0
-0.0170159 -0.0966082 0
0.155612 -0.170391 0
0.167681 -0.355481 0
-0.0163735 -0.420419 0
-0.121385 -0.36386 0
0.0118291 -0.158807 0
0.115111 0.00537451 0
0.0181337 -0.188143 0
-0.0824816 -0.451259 0
-0.0119389 -0.384204 0
0.0671466 -0.134272 0
0.000791332 -0.112888 0
-0.0739551 -0.253939 0
-0.0453829 -0.313546 0
-0.0141601 -0.243502 0
-0.0167483 -0.158586 0
-9.30386e-05 -0.145657 0
0.0282711 -0.202553 0
-0.0025717 -0.286999 0
-0.0981464 -0.369962 0
0.230554 0.649709 0
0.256253 0.837614 0
0.842839 -0.0257588 0
0.0979415 0.285908 0
-1.0075 0.887208 0
0.08416 1.56227 0
-0.178212 -0.348844 0
-0.975463 -0.51824 0
-0.00187655 0.399373 0
0.195833 0.554729 0
1.57822 -0.0090614 0
-0.356281 0.617428 0
0.484059 0.690071 0
-0.339916 0.846719 0
-0.0732658 0.701506 0
-0.303582 0.378938 0
-0.086817 0.375201 0
0.0999175 -0.877864 0
0.209389 -0.267828 0
-0.883472 -1.62949 0
-0.258785 -1.30147 0
-0.771037 -0.613324 0
0.0264355 -0.530177 0
-0.30062 -1.59205 0
0.744921 -2.01567 0
1.00025 0.668487 0
-0.483954 -0.602693 0
0.00711352 0.0329732 0
-0.266772 -1.23912 0
-0.932644 -0.279309 0
-0.148625 0.293009 0
-0.223714 -0.779764 0
0.349105 -0.596288 0
0.487361 -0.259402 0
-0.281285 -0.56545 0
-0.205688 0.0678364 0
-1.05669 -0.535661 0
0.589653 -1.1185 0
0.164975 -0.663441 0
0.127244 -1.08104 0
-0.455536 -0.854347 0
0.0453506 -0.674276 0
-0.457571 -0.036501 0
-0.674733 -0.309862 0
-0.0526001 0.0361669 0