<?xml version='1.0' encoding='UTF-8'?>
<VTKFile byte_order='LittleEndian' version='0.1' type = 'UnstructuredGrid'>
<UnstructuredGrid>
<FieldData>
<DataArray type='Float64' Name='Time' NumberOfComponents='1' NumberOfTuples='1' format='ascii'>
4.441
</DataArray>
</FieldData>
<Piece NumberOfCells='808' NumberOfPoints='808'>
<Points>
<DataArray NumberOfComponents='3' type='Float64' Name='position' format='ascii'>
-0.00201484 -0.00174893 0
-0.0019206 0.0252734 0
-0.00945814 0.0488245 0
-0.0071515 0.0874482 0
-0.00751351 0.0950629 0
-0.00013276 0.125316 0
-0.00752124 0.150103 0
-0.00533823 0.177438 0
0.0253734 -0.00142868 0
0.0444678 -0.0062981 0
0.0746093 -0.00243694 0
0.0971831 -0.00167079 0
0.124029 -0.00233451 0
0.154003 -0.00651758 0
0.175922 -0.0129998 0
0.203363 -0.0152939 0
0.20712 -0.0105229 0
0.233868 -0.0104158 0
0.251653 -0.026147 0
0.296709 -0.0299744 0
0.314648 -0.0435058 0
0.336201 0.00043441 0
0.348794 -0.417434 0
0.378894 -0.40987 0
0.417091 -0.410284 0
0.440212 -0.411803 0
0.456593 -0.418588 0
0.488348 -0.449516 0
0.512991 -0.457217 0
0.528076 -0.460235 0
0.57044 -0.42865 0
0.602954 -0.45414 0
0.637649 -0.478372 0
0.669985 -0.506831 0
0.683329 -0.500591 0
0.665497 -0.602023 0
0.71638 -0.609375 0
0.749589 -0.635941 0
0.77073 -0.622737 0
0.81135 -0.643593 0
0.836062 -0.637552 0
0.863319 -0.637138 0
0.897053 -0.673431 0
0.875569 -0.792955 0
0.91629 -0.791091 0
0.931846 -0.817346 0
0.949344 -0.821886 0
0.988414 -0.839451 0
1.00233 -0.843129 0
1.02376 -0.882232 0
1.07478 -0.908522 0
1.06418 -0.908028 0
1.12693 -0.892527 0
1.14975 -0.917658 0
1.184 -0.96115 0
1.22315 -0.967548 0
1.23303 -1.01534 0
1.25815 -1.05489 0
1.28392 -1.05717 0
1.35181 -1.03737 0
1.33285 -1.04826 0
1.33472 -1.09972 0
1.38551 -1.1104 0
1.42554 -1.10633 0
1.43259 -1.1292 0
1.46578 -1.14435 0
1.47793 -1.1702 0
1.49261 -1.16767 0
1.51513 -1.19032 0
1.55187 -1.20878 0
1.59027 -1.22344 0
1.59917 -1.24922 0
1.62187 -1.25833 0
1.65831 -1.26133 0
1.67841 -1.27053 0
1.70173 -1.30043 0
1.73494 -1.30812 0
1.74727 -1.30457 0
1.77775 -1.31652 0
1.80691 -1.32586 0
1.81708 -1.33088 0
1.84293 -1.34861 0
1.87441 -1.36121 0
1.90035 -1.36169 0
1.91493 -1.36334 0
1.93064 -1.37622 0
1.96159 -1.39355 0
1.9965 -1.40179 0
2.01738 -1.40174 0
2.03115 -1.4028 0
2.05356 -1.41146 0
2.08479 -1.42467 0
2.11388 -1.43242 0
2.13617 -1.43186 0
2.15709 -1.43149 0
2.1816 -1.4397 0
2.20889 -1.45084 0
2.23594 -1.45552 0
2.26132 -1.45423 0
2.2841 -1.45532 0
2.30527 -1.4614 0
2.32851 -1.46785 0
2.35624 -1.47099 0
2.38591 -1.47078 0
2.41207 -1.47027 0
2.43428 -1.47111 0
2.45612 -1.47324 0
2.47957 -1.47553 0
0.0390306 0.024936 0
0.0533008 0.0251097 0
0.0844594 0.0180221 0
0.102345 0.0179759 0
0.134784 0.0025189 0
0.154412 0.00347407 0
0.178933 -0.00346379 0
0.195112 -0.00964331 0
0.21519 0.000564891 0
0.240265 0.00570181 0
0.270272 0.00405313 0
0.296921 -0.00563401 0
0.315748 -0.0104412 0
0.344292 0.00631106 0
0.314934 -0.428572 0
0.369624 -0.404796 0
0.412493 -0.395668 0
0.446252 -0.392745 0
0.455096 -0.408389 0
0.498311 -0.393091 0
0.511171 -0.405608 0
0.542132 -0.411446 0
0.576402 -0.450478 0
0.600607 -0.423409 0
0.639992 -0.433524 0
0.65471 -0.477663 0
0.667894 -0.521542 0
0.687251 -0.542419 0
0.72443 -0.538361 0
0.753202 -0.587434 0
0.782407 -0.607637 0
0.81385 -0.613594 0
0.834947 -0.605586 0
0.8722 -0.626652 0
0.884466 -0.640876 0
0.896562 -0.657505 0
0.938152 -0.665626 0
0.905189 -0.799843 0
0.959256 -0.78534 0
0.986857 -0.813128 0
1.01595 -0.81394 0
1.05222 -0.827729 0
1.05537 -0.875074 0
1.07051 -0.890356 0
1.09049 -0.872604 0
1.15926 -0.893319 0
1.16474 -0.907559 0
1.1956 -0.930442 0
1.24828 -0.992584 0
1.26715 -1.00958 0
1.29309 -1.02354 0
1.30904 -1.03981 0
1.34117 -1.03445 0
1.34526 -1.04529 0
1.38433 -1.05903 0
1.42358 -1.08893 0
1.4463 -1.10979 0
1.45279 -1.1223 0
1.47583 -1.13154 0
1.50668 -1.16272 0
1.51313 -1.1767 0
1.54821 -1.19115 0
1.57785 -1.1912 0
1.60028 -1.22219 0
1.62896 -1.23781 0
1.64297 -1.23171 0
1.6747 -1.25137 0
1.71369 -1.26965 0
1.7331 -1.28184 0
1.75146 -1.28747 0
1.7839 -1.28895 0
1.79831 -1.29297 0
1.81936 -1.31096 0
1.84634 -1.32627 0
1.87177 -1.33065 0
1.89722 -1.33247 0
1.91675 -1.34038 0
1.93418 -1.3542 0
1.96153 -1.36683 0
1.99287 -1.37205 0
2.01534 -1.37378 0
2.03339 -1.37882 0
2.05643 -1.38882 0
2.0845 -1.40011 0
2.11196 -1.40499 0
2.13499 -1.40443 0
2.15741 -1.40796 0
2.18255 -1.41643 0
2.20956 -1.42638 0
2.23563 -1.42957 0
2.25996 -1.42932 0
2.28341 -1.43062 0
2.30611 -1.43576 0
2.33004 -1.4427 0
2.35681 -1.44674 0
2.38484 -1.44619 0
2.41082 -1.44457 0
2.43399 -1.44521 0
2.45647 -1.4479 0
2.47996 -1.45074 0
0.0169888 0.0292504 0
0.0480716 0.0608093 0
0.075183 0.0437171 0
0.0945387 0.0335585 0
0.136767 0.0437376 0
0.155128 0.0374367 0
0.155618 0.0139034 0
0.182827 0.012231 0
0.214971 0.0213361 0
0.245343 0.0205031 0
0.284521 0.0087649 0
0.291088 0.0341342 0
0.315509 0.00409902 0
0.346343 0.0200829 0
0.387979 0.0146076 0
0.348412 -0.392188 0
0.398753 -0.376309 0
0.45175 -0.369801 0
0.474598 -0.367983 0
0.497335 -0.371779 0
0.520947 -0.384844 0
0.574579 -0.380021 0
0.591452 -0.399286 0
0.601425 -0.408963 0
0.626811 -0.423745 0
0.650814 -0.439389 0
0.669631 -0.474339 0
0.716279 -0.503202 0
0.722544 -0.517788 0
0.750911 -0.5472 0
0.772955 -0.576586 0
0.806314 -0.59559 0
0.841397 -0.613288 0
0.832297 -0.617514 0
0.856878 -0.621283 0
0.904163 -0.645072 0
0.93416 -0.629903 0
0.96228 -0.659546 0
0.977692 -0.715904 0
0.981573 -0.752123 0
1.0167 -0.772435 0
1.04288 -0.790179 0
1.05397 -0.837664 0
1.06671 -0.856358 0
1.13337 -0.865372 0
1.15084 -0.886476 0
1.17 -0.918516 0
1.21124 -0.893925 0
1.2462 -0.980911 0
1.26261 -0.989242 0
1.27846 -1.00572 0
1.31277 -1.00159 0
1.32478 -1.0257 0
1.36988 -1.03487 0
1.38724 -1.03916 0
1.41062 -1.05072 0
1.43764 -1.07423 0
1.45954 -1.09612 0
1.48517 -1.10943 0
1.48598 -1.12443 0
1.51383 -1.15573 0
1.56072 -1.16928 0
1.57994 -1.17959 0
1.60643 -1.17955 0
1.62601 -1.1953 0
1.64532 -1.222 0
1.6796 -1.21578 0
1.70626 -1.24127 0
1.73969 -1.26014 0
1.75046 -1.26015 0
1.77787 -1.25871 0
1.80342 -1.2691 0
1.8202 -1.28995 0
1.84355 -1.30241 0
1.87245 -1.30138 0
1.89677 -1.30515 0
1.91653 -1.31842 0
1.93635 -1.3305 0
1.96143 -1.3382 0
1.99016 -1.34383 0
2.01477 -1.3487 0
2.03488 -1.35561 0
2.05753 -1.36608 0
2.08468 -1.37471 0
2.11105 -1.37703 0
2.13385 -1.37823 0
2.15722 -1.38478 0
2.1836 -1.39373 0
2.21034 -1.40085 0
2.23508 -1.40377 0
2.25886 -1.40438 0
2.28283 -1.40577 0
2.30691 -1.4111 0
2.33133 -1.41754 0
2.35706 -1.42138 0
2.38392 -1.421 0
2.40988 -1.41924 0
2.43381 -1.41987 0
2.45679 -1.42296 0
2.48029 -1.4263 0
0.0448903 0.0752134 0
0.0578451 0.080949 0
0.0759289 0.0549907 0
0.0903657 0.06889 0
0.130669 0.0581759 0
0.162806 0.0658916 0
0.16908 0.0398664 0
0.19321 0.0384545 0
0.225112 0.0418375 0
0.240618 0.0404739 0
0.269907 0.033385 0
0.298477 0.0411174 0
0.310385 0.0263222 0
0.354322 0.0467517 0
0.385221 0.0458921 0
0.355319 -0.382364 0
0.413582 -0.356983 0
0.431142 -0.346717 0
0.476043 -0.340323 0
0.484159 -0.360292 0
0.548097 -0.331275 0
0.547472 -0.346075 0
0.60416 -0.342451 0
0.608336 -0.383712 0
0.63406 -0.395117 0
0.650307 -0.421995 0
0.665541 -0.447368 0
0.709349 -0.470309 0
0.723322 -0.475976 0
0.743777 -0.499363 0
0.766609 -0.530193 0
0.800262 -0.542956 0
0.82957 -0.571736 0
0.857498 -0.579408 0
0.851263 -0.611873 0
0.894103 -0.607271 0
0.955376 -0.621831 0
0.980612 -0.645032 0
0.983885 -0.673791 0
0.98498 -0.709335 0
1.01663 -0.74252 0
1.05099 -0.740427 0
1.05409 -0.799591 0
1.06857 -0.825735 0
1.12087 -0.82821 0
1.17333 -0.853753 0
1.18362 -0.868325 0
1.23268 -0.860471 0
1.24782 -0.909894 0
1.2481 -0.94806 0
1.28196 -0.977316 0
1.31656 -0.986656 0
1.33899 -0.997526 0
1.35854 -1.00112 0
1.38899 -1.02529 0
1.41591 -1.03473 0
1.43109 -1.02977 0
1.46332 -1.05775 0
1.4809 -1.09068 0
1.50021 -1.11898 0
1.54229 -1.11935 0
1.55281 -1.13577 0
1.57186 -1.14809 0
1.61342 -1.15496 0
1.62713 -1.17302 0
1.63706 -1.19523 0
1.67637 -1.19404 0
1.71517 -1.20456 0
1.73469 -1.23727 0
1.75202 -1.23946 0
1.77625 -1.22677 0
1.80373 -1.24689 0
1.82418 -1.27082 0
1.84172 -1.27323 0
1.86931 -1.27427 0
1.8984 -1.28096 0
1.91752 -1.29228 0
1.93607 -1.30547 0
1.96182 -1.31214 0
1.98896 -1.31537 0
2.01347 -1.32378 0
2.03632 -1.3331 0
2.05874 -1.34176 0
2.08386 -1.3485 0
2.11034 -1.35045 0
2.13399 -1.35268 0
2.15712 -1.36121 0
2.18369 -1.37106 0
2.21093 -1.37581 0
2.23494 -1.37688 0
2.2579 -1.3791 0
2.28249 -1.38212 0
2.30764 -1.38684 0
2.33223 -1.3921 0
2.35705 -1.39537 0
2.38302 -1.39545 0
2.40915 -1.39433 0
2.43387 -1.39525 0
2.45725 -1.39831 0
2.48062 -1.40151 0
0.0258563 0.107092 0
0.0369899 0.0876838 0
0.0720813 0.0922509 0
0.117167 0.122637 0
0.120726 0.0756715 0
0.131974 0.0865167 0
0.174801 0.0733505 0
0.187583 0.071158 0
0.22772 0.0713656 0
0.276058 0.0737035 0
0.27141 0.0486497 0
0.287384 0.0463376 0
0.319477 0.0594733 0
0.350919 0.0756916 0
0.387862 0.0835013 0
0.407761 0.0708515 0
0.408927 -0.338132 0
0.431657 -0.326784 0
0.474259 -0.326756 0
0.469032 -0.317594 0
0.531796 -0.310999 0
0.549071 -0.318038 0
0.569014 -0.314439 0
0.591 -0.362289 0
0.623378 -0.353207 0
0.647618 -0.40366 0
0.673618 -0.399535 0
0.678475 -0.464795 0
0.712663 -0.434815 0
0.737185 -0.456601 0
0.766833 -0.494204 0
0.782887 -0.529186 0
0.837091 -0.545432 0
0.862987 -0.568724 0
0.87354 -0.578818 0
0.902614 -0.584288 0
0.94431 -0.594221 0
0.958367 -0.633163 0
0.973997 -0.672293 0
0.98269 -0.699752 0
1.02161 -0.729114 0
1.03724 -0.742989 0
1.07099 -0.744157 0
1.09798 -0.798322 0
1.12691 -0.817523 0
1.13561 -0.800513 0
1.18853 -0.848968 0
1.21828 -0.845209 0
1.25667 -0.869964 0
1.25743 -0.906308 0
1.26088 -0.915693 0
1.31735 -0.940149 0
1.33923 -0.944285 0
1.36746 -0.962268 0
1.38639 -1.0023 0
1.41292 -1.01568 0
1.43713 -1.00523 0
1.45073 -1.03701 0
1.48859 -1.06167 0
1.50159 -1.08263 0
1.52046 -1.1036 0
1.55304 -1.1162 0
1.57804 -1.12601 0
1.60696 -1.12755 0
1.62863 -1.14968 0
1.64283 -1.1651 0
1.67658 -1.16898 0
1.71185 -1.18578 0
1.73154 -1.205 0
1.75228 -1.20999 0
1.77962 -1.21002 0
1.8035 -1.22302 0
1.82301 -1.24294 0
1.84344 -1.24876 0
1.86833 -1.24641 0
1.89551 -1.25484 0
1.91867 -1.26867 0
1.93825 -1.27952 0
1.96109 -1.28533 0
1.98756 -1.29053 0
2.0134 -1.29821 0
2.03706 -1.30874 0
2.05933 -1.31753 0
2.08341 -1.32183 0
2.1095 -1.32423 0
2.13419 -1.32885 0
2.15811 -1.33837 0
2.18376 -1.34622 0
2.21016 -1.34973 0
2.23446 -1.35122 0
2.25777 -1.35415 0
2.28273 -1.35842 0
2.30817 -1.36284 0
2.33257 -1.36666 0
2.35676 -1.36889 0
2.38229 -1.36956 0
2.40874 -1.36991 0
2.43412 -1.37142 0
2.45779 -1.37385 0
2.48093 -1.3761 0
0.0152208 0.11092 0
0.0408241 0.113113 0
0.069051 0.125059 0
0.0794215 0.105019 0
0.14702 0.136371 0
0.160962 0.110958 0
0.172998 0.0996589 0
0.21961 0.117385 0
0.23924 0.106649 0
0.241555 0.0872965 0
0.274726 0.0935471 0
0.312204 0.0765057 0
0.330695 0.0755124 0
0.360114 0.0878902 0
0.388015 0.101361 0
0.409639 0.104613 0
0.43036 0.107877 0
0.448687 -0.286147 0
0.470317 -0.276927 0
0.487439 -0.276835 0
0.517302 -0.264492 0
0.554422 -0.282824 0
0.562694 -0.29201 0
0.598865 -0.325311 0
0.631446 -0.336999 0
0.669839 -0.341716 0
0.669791 -0.386301 0
0.701741 -0.401717 0
0.723467 -0.432056 0
0.747047 -0.430195 0
0.780114 -0.461296 0
0.806888 -0.505528 0
0.821043 -0.517575 0
0.862405 -0.540474 0
0.876619 -0.548378 0
0.918072 -0.558321 0
0.942112 -0.535833 0
0.955504 -0.581302 0
0.973881 -0.630918 0
0.996469 -0.687117 0
1.00962 -0.696809 0
1.04164 -0.706158 0
1.08119 -0.74218 0
1.08788 -0.752212 0
1.12452 -0.789837 0
1.15199 -0.787839 0
1.18273 -0.80476 0
1.23834 -0.801683 0
1.24686 -0.831253 0
1.26437 -0.880295 0
1.29471 -0.892129 0
1.31548 -0.910101 0
1.33723 -0.903877 0
1.3687 -0.9359 0
1.38103 -0.956643 0
1.39942 -0.99618 0
1.4293 -0.983271 0
1.45242 -1.01307 0
1.48962 -1.04706 0
1.5028 -1.05546 0
1.53672 -1.07409 0
1.54809 -1.09139 0
1.58146 -1.10558 0
1.59637 -1.09637 0
1.63549 -1.12633 0
1.65679 -1.14202 0
1.67397 -1.14514 0
1.70527 -1.16252 0
1.73366 -1.17749 0
1.75412 -1.18073 0
1.77709 -1.18737 0
1.80195 -1.20261 0
1.82378 -1.21544 0
1.84496 -1.21784 0
1.86805 -1.22078 0
1.89293 -1.23196 0
1.9185 -1.24417 0
1.94112 -1.25256 0
1.96119 -1.25871 0
1.98505 -1.26526 0
2.01306 -1.27479 0
2.03851 -1.28394 0
2.05992 -1.29013 0
2.08271 -1.29541 0
2.1088 -1.3001 0
2.13461 -1.30646 0
2.15906 -1.31445 0
2.18395 -1.32074 0
2.20895 -1.32352 0
2.23334 -1.32519 0
2.25811 -1.3296 0
2.28378 -1.33519 0
2.30877 -1.33898 0
2.33227 -1.34097 0
2.35603 -1.34214 0
2.38184 -1.34371 0
2.40883 -1.34596 0
2.43463 -1.34812 0
2.4583 -1.34942 0
2.48095 -1.34997 0
0.015292 0.134305 0
0.0411792 0.147044 0
0.0714057 0.148741 0
0.0972204 0.133011 0
0.11728 0.13528 0
0.154682 0.126318 0
0.170929 0.131122 0
0.195489 0.12349 0
0.221847 0.130833 0
0.256513 0.124497 0
0.275508 0.110844 0
0.292829 0.108207 0
0.317389 0.118781 0
0.358074 0.125051 0
0.385869 0.131289 0
0.417019 0.145045 0
0.652792 -0.00598452 0
0.451378 -0.214367 0
0.505126 -0.220241 0
0.507622 -0.234541 0
0.502632 -0.252144 0
0.548564 -0.254174 0
0.572371 -0.271975 0
0.602249 -0.284 0
0.630788 -0.325438 0
0.657382 -0.331725 0
0.687682 -0.343301 0
0.706079 -0.369888 0
0.734787 -0.379252 0
0.777487 -0.393302 0
0.787903 -0.425298 0
0.824304 -0.486517 0
0.847583 -0.495039 0
0.871889 -0.502285 0
0.886498 -0.527836 0
0.88793 -0.540337 0
0.927328 -0.553638 0
0.969045 -0.567853 0
0.973137 -0.584391 0
1.01803 -0.651371 0
1.04253 -0.676479 0
1.0548 -0.692682 0
1.07514 -0.697277 0
1.09457 -0.702048 0
1.13607 -0.752492 0
1.1611 -0.763526 0
1.21109 -0.768023 0
1.212 -0.797523 0
1.23561 -0.811474 0
1.28749 -0.862866 0
1.30659 -0.884562 0
1.32524 -0.902427 0
1.35405 -0.887299 0
1.37293 -0.899168 0
1.38069 -0.931146 0
1.41294 -0.95535 0
1.43899 -0.958035 0
1.46102 -0.972436 0
1.48746 -1.02565 0
1.50268 -1.03437 0
1.54124 -1.04815 0
1.55594 -1.06302 0
1.57083 -1.07063 0
1.60107 -1.08705 0
1.63312 -1.09322 0
1.66633 -1.11313 0
1.67513 -1.1206 0
1.7058 -1.14279 0
1.73464 -1.15051 0
1.75367 -1.14861 0
1.7734 -1.16449 0
1.79858 -1.18453 0
1.8251 -1.1857 0
1.84785 -1.18492 0
1.86729 -1.19612 0
1.89066 -1.21077 0
1.9188 -1.22025 0
1.94336 -1.22492 0
1.96144 -1.23064 0
1.9827 -1.24107 0
2.01177 -1.25252 0
2.0399 -1.25778 0
2.06146 -1.26197 0
2.08212 -1.26907 0
2.1076 -1.27767 0
2.13509 -1.28449 0
2.16051 -1.28968 0
2.18382 -1.29355 0
2.20716 -1.29691 0
2.23235 -1.30068 0
2.25896 -1.30603 0
2.28516 -1.31107 0
2.30922 -1.31454 0
2.33158 -1.31527 0
2.35506 -1.31554 0
2.38156 -1.31819 0
2.40939 -1.32232 0
2.43549 -1.32491 0
2.45867 -1.32463 0
2.48032 -1.32284 0
0.00317737 0.171058 0
0.0317005 0.168073 0
0.085423 0.170588 0
0.106369 0.185057 0
0.127261 0.172763 0
0.148337 0.171332 0
0.181105 0.175529 0
0.206291 0.146568 0
0.228137 0.140156 0
0.262923 0.145953 0
0.273915 0.139551 0
0.283336 0.135849 0
0.311028 0.12669 0
0.352459 0.144146 0
0.393188 0.14813 0
0.410382 0.184007 0
0.460169 0.221395 0
0.440135 -0.166956 0
0.496561 -0.164566 0
0.525905 -0.134767 0
0.533711 -0.126349 0
0.575911 -0.12644 0
0.558002 -0.247718 0
0.586898 -0.270516 0
0.623765 -0.299892 0
0.659393 -0.309956 0
0.674202 -0.301788 0
0.704793 -0.34424 0
0.735841 -0.355619 0
0.751734 -0.374989 0
0.789487 -0.380297 0
0.798818 -0.465875 0
0.838238 -0.491479 0
0.855285 -0.477718 0
0.898498 -0.521012 0
0.928983 -0.530416 0
0.926565 -0.513541 0
0.970779 -0.501349 0
1.15417 -0.495469 0
0.990323 -0.615108 0
1.02227 -0.628827 0
1.05563 -0.650223 0
1.07892 -0.655439 0
1.09084 -0.678145 0
1.13465 -0.725375 0
1.17102 -0.744858 0
1.19798 -0.732242 0
1.2581 -0.742893 0
1.22596 -0.808433 0
1.26598 -0.816456 0
1.27365 -0.798738 0
1.30428 -0.867097 0
1.34655 -0.870974 0
1.36654 -0.876891 0
1.39272 -0.900937 0
1.39348 -0.912153 0
1.44954 -0.942637 0
1.46341 -0.954659 0
1.46979 -0.99717 0
1.49506 -0.999029 0
1.53092 -0.999593 0
1.55166 -1.02606 0
1.57117 -1.0507 0
1.60993 -1.07967 0
1.64498 -1.07131 0
1.66325 -1.07134 0
1.682 -1.10814 0
1.70721 -1.1278 0
1.73463 -1.11426 0
1.75362 -1.11764 0
1.76805 -1.14663 0
1.79437 -1.16329 0
1.82826 -1.15821 0
1.85145 -1.15384 0
1.86511 -1.16962 0
1.88793 -1.19112 0
1.92065 -1.19791 0
1.94596 -1.19541 0
1.96061 -1.20207 0
1.97973 -1.21828 0
2.01061 -1.22986 0
2.04187 -1.23236 0
2.06315 -1.23387 0
2.08129 -1.24208 0
2.10592 -1.25522 0
2.13585 -1.26349 0
2.1624 -1.26438 0
2.1835 -1.26506 0
2.20517 -1.27064 0
2.23126 -1.27751 0
2.25998 -1.28266 0
2.28663 -1.28643 0
2.30964 -1.28886 0
2.33082 -1.28919 0
2.35384 -1.28955 0
2.38117 -1.29332 0
2.41034 -1.29883 0
2.43686 -1.30121 0
2.45898 -1.29883 0
2.47877 -1.29449 0
</DataArray>
</Points>
<PointData>
<DataArray NumberOfComponents='1' type='Int32' Name='Particle Type' format='ascii'>
0
0
0
0
0
0
0
0
0
0
0
0
0
0
0
0
0
0
0
0
0
0
1
1
1
1
1
1
1
1
1
1
1
1
1
1
1
1
1
1
1
1
1
1
1
1
1
1
1
1
1
1
1
1
1
1
1
1
1
1
1
1
1
1
1
1
1
1
1
1
1
1
1
1
1
1
1
1
1
1
1
1
1
1
1
1
1
1
1
1
1
1
1
1
1
1
1
1
1
1
1
1
1
1
1
1
1
1
1
1
1
1
1
1
1
1
1
1
1
1
1
1
1
1
1
1
1
1
1
1
1
1
1
1
1
1
1
1
1
1
1
1
1
1
1
1
1
1
1
1
1
1
1
1
1
1
1
1
1
1
1
1
1
1
1
1
1
1
1
1
1
1
1
1
1
1
1
1
1
1
1
1
1
1
1
1
1
1
1
1
1
1
1
1
1
1
1
1
1
1
1
1
1
1
1
1
1
1
1
1
1
1
1
1
1
1
1
1
1
1
1
1
1
1
1
1
1
1
1
1
1
1
1
1
1
1
1
1
1
1
1
1
1
1
1
1
1
1
1
1
1
1
1
1
1
1
1
1
1
1
1
1
1
1
1
1
1
1
1
1
1
1
1
1
1
1
1
1
1
1
1
1
1
1
1
1
1
1
1
1
1
1
1
1
1
1
1
1
1
1
1
1
1
1
1
1
1
1
1
1
1
1
1
1
1
1
1
1
1
1
1
1
1
1
1
1
1
1
1
1
1
1
1
1
1
1
1
1
1
1
1
1
1
1
1
1
1
1
1
1
1
1
1
1
1
1
1
1
1
1
1
1
1
1
1
1
1
1
1
1
1
1
1
1
1
1
1
1
1
1
1
1
1
1
1
1
1
1
1
1
1
1
1
1
1
1
1
1
1
1
1
1
1
1
1
1
1
1
1
1
1
1
1
1
1
1
1
1
1
1
1
1
1
1
1
1
1
1
1
1
1
1
1
1
1
1
1
1
1
1
1
1
1
1
1
1
1
1
1
1
1
1
1
1
1
1
1
1
1
1
1
1
1
1
1
1
1
1
1
1
1
1
1
1
1
1
1
1
1
1
1
1
1
1
1
1
1
1
1
1
1
1
1
1
1
1
1
1
1
1
1
1
1
1
1
1
1
1
1
1
1
1
1
1
1
1
1
1
1
1
1
1
1
1
1
1
1
1
1
1
1
1
1
1
1
1
1
1
1
1
1
1
1
1
1
1
1
1
1
1
1
1
1
1
1
1
1
1
1
1
1
1
1
1
1
1
1
1
1
1
1
1
1
1
1
1
1
1
1
1
1
1
1
1
1
1
1
1
1
1
1
1
1
1
1
1
1
1
1
1
1
1
1
1
1
1
1
1
1
1
1
1
1
1
1
1
1
1
1
1
1
1
1
1
1
1
1
1
1
1
1
1
1
1
1
1
1
1
1
1
1
1
1
1
1
1
1
1
1
1
1
1
1
1
1
1
1
1
1
1
1
1
1
1
1
1
1
1
1
1
1
1
1
1
1
1
1
1
1
1
1
1
1
1
1
1
1
1
1
1
1
1
1
1
1
1
1
1
1
1
1
1
1
1
1
1
1
1
1
1
1
1
1
1
1
1
1
1
1
1
1
1
1
1
1
1
1
1
1
1
1
1
1
1
1
1
1
1
1
1
1
1
1
1
1
1
1
1
1
1
1
1
1
1
1
1
1
1
1
1
1
1
1
1
1
1
1
1
1
1
1
1
1
1
1
1
1
1
1
1
1
1
1
1
1
1
1
1
1
1
1
1
1
1
1
1
1
1
1
1
1
1
1
1
1
1
1
1
</DataArray>
<DataArray NumberOfComponents='3' type='Float64' Name='Velocity' format='ascii'>
-0.735997 -0.2641 0
-0.518009 0.0842582 0
-1.07722 -0.0829008 0
-0.620877 0.952867 0
-0.788915 -0.18557 0
0.340091 0.407734 0
-1.28465 -0.0832856 0
-0.772271 0.333739 0
0.198336 -0.520544 0
-0.569497 -1.09535 0
0.136195 -0.516678 0
-0.245806 -0.396407 0
-0.409616 -0.181202 0
0.376891 -0.837306 0
0.0480942 -1.01038 0
0.203739 -1.04228 0
-0.649414 -0.354877 0
-0.904178 -0.603664 0
-0.855123 -0.261107 0
0.918981 -0.937343 0
0.0245939 -0.7824 0
-0.211826 0.0269508 0
-0.186989 -0.875253 0
0.175582 -0.571761 0
-0.899423 -1.80396 0
-0.888938 -0.744925 0
1.18085 -0.872281 0
0.141219 -0.250655 0
0.734089 -1.31352 0
-0.480176 0.200803 0
0.418671 0.460735 0
-0.0183105 0.216734 0
0.453125 -0.584627 0
-0.207404 -0.750711 0
0.232739 -0.251775 0
0.531648 0.0658105 0
0.011152 -0.971247 0
-0.638302 -1.10098 0
-0.59156 -1.12043 0
-0.386166 -0.0864917 0
-0.216517 0.301291 0
0.29517 -0.713968 0
0.523904 -1.13064 0
0.29845 -0.305839 0
-0.733052 0.418478 0
-0.800098 -0.58591 0
0.793599 -0.198121 0
0.706834 -0.530581 0
-0.895311 0.407454 0
-0.384444 -0.887945 0
-0.406708 -0.394404 0
-0.224664 -1.00048 0
0.267583 0.869064 0
0.866761 -0.927631 0
-0.766078 -0.264226 0
-0.410946 -0.269406 0
0.0235331 -0.168201 0
-0.198265 0.228852 0
0.937692 -0.635984 0
-0.0282855 -0.735092 0
0.108044 0.221669 0
0.129515 -0.120707 0
-0.652898 -0.196602 0
0.0532278 -0.439365 0
0.167906 -0.638669 0
-0.441596 0.201904 0
0.658581 -0.423247 0
1.07679 -0.84623 0
0.0352824 0.302043 0
-0.538303 -0.437537 0
-0.0841057 -0.14238 0
0.326872 -0.30063 0
-0.20304 -0.531359 0
-0.155991 -0.541254 0
0.413233 -0.0545803 0
-0.332861 -0.0773572 0
0.241888 -0.745716 0
0.150344 -0.487481 0
-0.305759 -0.182741 0
0.344013 -0.509548 0
0.137128 -0.19901 0
-0.201122 -0.0454559 0
-0.200313 -0.418825 0
0.151423 -0.642694 0
0.353593 -0.400211 0
0.0220778 -0.0555724 0
-0.3615 -0.147637 0
-0.122684 -0.491576 0
0.307509 -0.580724 0
0.251956 -0.367684 0
-0.115151 -0.0615637 0
-0.224098 -0.0413728 0
-0.0283086 -0.302552 0
0.138822 -0.482015 0
0.10273 -0.339294 0
-0.0435919 -0.0987406 0
-0.108269 -0.146289 0
-0.0857707 -0.344873 0
-0.00194588 -0.402785 0
0.0878652 -0.257147 0
0.0708825 -0.153392 0
-0.0591122 -0.168032 0
-0.171932 -0.249723 0
-0.107252 -0.30745 0
0.0621941 -0.320495 0
0.113074 -0.313651 0
0.00268323 -0.282691 0
-0.143412 -0.245755 0
-0.118939 1.02596 0
0.654423 1.33774 0
-0.639749 0.183654 0
-0.166032 -0.244749 0
-0.257299 -0.122672 0
0.499884 -0.104603 0
0.0817316 -0.0668348 0
0.507198 0.0137228 0
0.780114 -0.936257 0
-0.402149 -0.180524 0
-0.0892514 0.00311633 0
0.364888 0.386018 0
-0.0598178 -0.186365 0
-0.174375 0.141286 0
0.452741 -0.671631 0
0.256601 0.13402 0
-0.397309 -0.819786 0
-0.247931 -1.84579 0
0.647206 -0.573533 0
-0.512475 -1.6903 0
0.0385817 0.102125 0
0.7687 -1.58122 0
-0.292557 -0.351355 0
0.645866 -0.944729 0
0.106213 0.558548 0
0.257699 0.922061 0
0.230162 -0.688745 0
-0.162148 -0.0887266 0
-0.866684 -1.20578 0
-0.79443 -0.510727 0
-0.328682 -0.358995 0
0.221344 -0.571185 0
-0.0758431 -1.17566 0
-0.188917 0.756971 0
0.578608 0.607397 0
0.441354 -0.790455 0
0.362025 -0.533089 0
0.33123 -0.694828 0
0.239292 -1.73828 0
-0.18029 0.126046 0
1.10673 -0.0249886 0
0.631848 -0.305686 0
0.350132 0.0732346 0
0.256862 -1.10246 0
-0.500162 -0.681926 0
0.240242 -1.53361 0
0.395088 0.310538 0
-0.257717 0.804082 0
-0.212704 0.650804 0
-0.61365 -0.829831 0
0.138519 0.0776109 0
0.367474 -0.851918 0
-0.0333881 -0.620728 0
-0.10794 -0.434644 0
-0.536743 -0.905611 0
-0.724572 -0.0626261 0
0.696013 -0.514741 0
-0.0769007 -1.1422 0
-0.311067 0.413456 0
-0.524145 -0.699596 0
0.141927 -0.534001 0
-0.602288 -0.466603 0
0.286882 -0.127986 0
-0.0241437 0.457699 0
-0.00933717 -0.75411 0
0.580663 -0.597242 0
-0.804602 -0.0535058 0
-0.178369 -0.152453 0
0.70207 -0.531242 0
-0.336243 -0.384088 0
0.127598 -0.63101 0
0.294298 -0.250111 0
-0.0616307 -0.0210145 0
-0.0713809 -0.300384 0
-0.0496513 -0.550049 0
0.0340265 -0.455097 0
0.233009 -0.255026 0
0.0800032 -0.145429 0
-0.22465 -0.30176 0
-0.0942052 -0.491265 0
0.187838 -0.444902 0
0.152789 -0.260501 0
-0.0531492 -0.0795779 0
-0.130296 -0.151729 0
-0.0135059 -0.390343 0
0.0952584 -0.403377 0
0.0539782 -0.254785 0
-0.0526234 -0.103266 0
-0.0888275 -0.184721 0
-0.0377393 -0.358176 0
0.0105889 -0.372003 0
0.0432761 -0.277899 0
0.0327917 -0.154745 0
-0.0491139 -0.133369 0
-0.118267 -0.24569 0
-0.0801824 -0.350661 0
0.0252299 -0.3452 0
0.0636162 -0.291337 0
-0.00483021 -0.24708 0
-0.0976909 -0.21742 0
-0.0924646 -0.671887 0
-0.362362 0.00534041 0
-0.511915 -0.498558 0
-0.140824 0.522448 0
-0.232173 0.51942 0
0.535188 0.530695 0
0.481928 0.0594387 0
0.446818 0.484798 0
0.550069 -0.790983 0
-1.10742 -0.00126292 0
-0.118994 0.584654 0
0.23249 0.230679 0
-0.12122 0.41908 0
0.454986 -0.290423 0
0.436581 0.652311 0
-0.274664 -0.480508 0
0.373812 -0.950615 0
1.16933 -0.539263 0
-0.6699 -0.023649 0
-1.15137 -0.136806 0
-0.422727 -0.775664 0
-0.342934 -0.557722 0
0.348276 -1.20973 0
-0.850759 -0.86724 0
-0.291747 0.21222 0
0.380369 -0.0315285 0
-0.513868 -0.146655 0
0.915965 -0.63848 0
1.09498 -1.17987 0
-0.644909 -0.182842 0
-0.0817786 -0.387636 0
0.400823 -0.165479 0
0.572003 -0.784824 0
0.4066 -0.580824 0
-0.500955 -0.561127 0
0.432303 -1.13294 0
-0.162848 0.257846 0
-0.835783 -0.313173 0
0.341353 -0.31113 0
-0.3905 -0.66072 0
1.36524 -0.860692 0
0.930972 0.345382 0
-0.589384 -0.479137 0
-1.78951 -0.44368 0
-0.0119964 -0.31177 0
0.357103 -0.700611 0
-0.789518 -0.24334 0
0.4223 0.181328 0
-0.403147 0.119627 0
-0.215867 -0.171676 0
-0.543026 -0.911422 0
-0.027132 -0.36967 0
0.173196 -0.633033 0
-0.258206 -0.95832 0
0.801532 -0.819751 0
-0.124268 -0.830068 0
0.215394 -0.305286 0
-0.0998543 -0.0505636 0
0.805812 -0.30961 0
0.50761 0.0228616 0
-0.919688 0.0926937 0
-0.165027 -0.128068 0
0.106289 -0.583236 0
0.0606791 -0.726528 0
0.2803 0.235436 0
-0.248445 -0.302609 0
-0.0700223 -0.429376 0
-0.281048 0.240757 0
0.235381 -0.448643 0
0.194929 -0.706195 0
-0.147536 -0.488164 0
0.146031 -0.0722779 0
0.18062 -0.015544 0
-0.127052 -0.473476 0
-0.102904 -0.622956 0
0.0938336 -0.299741 0
0.169893 -0.175762 0
0.0774448 -0.318489 0
-0.106911 -0.382449 0
-0.100143 -0.396079 0
0.0918682 -0.342857 0
0.130058 -0.224948 0
-0.025528 -0.123993 0
-0.0947704 -0.285793 0
0.0163955 -0.409499 0
0.0813546 -0.314646 0
-0.00108406 -0.171852 0
-0.0774038 -0.155906 0
-0.0472301 -0.241803 0
0.00330509 -0.335299 0
0.0128749 -0.363974 0
0.00726545 -0.267896 0
-0.00207832 -0.15027 0
-0.0319816 -0.146827 0
-0.0744211 -0.245385 0
-0.068419 -0.347688 0
-0.00736045 -0.343438 0
0.0257582 -0.277155 0
-0.00976024 -0.230113 0
-0.0643726 -0.215136 0
-0.977278 -0.168821 0
0.0376941 -0.741343 0
-0.0305587 -0.0530521 0
0.561015 0.735211 0
0.0206803 -0.320777 0
-0.249715 0.0619409 0
-0.189287 0.622814 0
0.658363 0.543744 0
-0.444212 0.110875 0
-0.119178 -0.208022 0
0.541091 -0.465919 0
0.255193 0.353106 0
0.332143 0.157797 0
-0.785331 0.572533 0
0.340567 0.451476 0
-0.468928 0.0669866 0
-0.550765 -1.42161 0
-0.169534 -1.31274 0
0.127444 -0.333429 0
0.414541 -1.49956 0
-0.24707 -0.592887 0
0.450912 0.0664817 0
-0.476117 -0.775333 0
-0.961547 -1.14071 0
0.823785 -0.914913 0
-0.203044 0.867348 0
-0.249863 -0.205433 0
0.196709 -0.472995 0
0.295296 0.916223 0
-0.0945215 0.331124 0
0.232729 0.204505 0
-0.636136 -0.511868 0
-0.234696 -0.339594 0
-1.01668 -0.782837 0
0.520756 1.03863 0
0.553872 -0.922426 0
0.489426 -0.310613 0
0.246317 -0.0853587 0
0.152959 -0.499527 0
-0.401629 0.170187 0
0.685527 -0.362303 0
-0.208847 -0.153616 0
0.30779 0.120859 0
-0.307302 -0.541922 0
-0.604008 0.0646312 0
-0.301855 -0.249511 0
0.504527 -1.04103 0
-0.479998 -0.527792 0
1.18982 -0.186067 0
0.293388 -0.769633 0
-0.0158336 -0.589504 0
-0.763085 -0.570543 0
-0.195069 -0.643037 0
-0.154736 -0.527195 0
-0.263478 -0.0951156 0
0.142945 -1.11798 0
0.80911 -0.871073 0
-0.508507 -0.69044 0
0.0646612 0.770748 0
-0.353191 -0.198389 0
0.488079 -0.58709 0
0.459907 -0.582039 0
-0.535159 -0.577828 0
-0.179165 -0.327763 0
0.732762 0.0813468 0
-0.024244 -0.402008 0
-0.679746 -0.737379 0
-0.13867 0.188385 0
0.280981 0.0788136 0
0.158173 -1.03412 0
-0.0689122 -0.534758 0
-0.0213443 0.315737 0
0.23788 -0.249229 0
0.0748494 -0.635498 0
-0.219571 -0.477268 0
0.00661017 -0.32629 0
0.245136 -0.216295 0
0.0729172 -0.258658 0
-0.0989848 -0.473466 0
-0.0487197 -0.357851 0
0.0341018 -0.203286 0
0.0743541 -0.223144 0
0.0330913 -0.223857 0
-0.0576179 -0.322776 0
-0.0151251 -0.430509 0
0.0722227 -0.26083 0
0.00122995 -0.106392 0
-0.102116 -0.161065 0
-0.0451494 -0.332263 0
0.0449211 -0.337443 0
0.0210715 -0.29136 0
-0.0266342 -0.248073 0
-0.0220066 -0.180373 0
-0.0136196 -0.175581 0
-0.0409463 -0.241692 0
-0.0655218 -0.323661 0
-0.0404081 -0.324682 0
-0.00355309 -0.269983 0
-0.00716627 -0.236289 0
-0.0340756 -0.23208 0
0.0551316 -0.471902 0
0.361832 0.212229 0
0.135922 -0.159031 0
-0.0398028 -0.33203 0
0.185011 0.335848 0
0.392797 0.79946 0
-0.0563296 0.536985 0
-0.0430688 0.533018 0
0.236011 0.720679 0
-0.384689 -0.0217771 0
-0.128604 -0.227082 0
-0.77424 -0.182922 0
-0.910375 0.999694 0
0.323688 -0.242048 0
0.583706 0.302059 0
-0.267951 0.309722 0
-0.21024 -0.877151 0
0.914787 -0.605593 0
0.53302 -0.355952 0
0.920715 -0.506888 0
0.233271 -0.871102 0
-0.567627 -0.464154 0
0.0439123 -1.04805 0
-1.06879 -0.550544 0
0.952929 0.273081 0
-0.100534 -0.20232 0
-0.744808 -0.35022 0
-0.191154 -0.505575 0
0.0922942 -0.579311 0
0.0225468 0.921887 0
0.000350313 -0.2336 0
-0.376518 0.00821752 0
0.826214 -0.603136 0
-0.266454 -0.749854 0
-0.146199 -0.0715154 0
0.45967 -0.755607 0
0.202845 -0.829949 0
0.99004 -0.539884 0
0.15584 0.0687693 0
-0.668266 0.313842 0
-0.0768468 0.136335 0
0.17507 -0.0819231 0
0.206295 -0.600322 0
-0.900469 0.59367 0
0.606703 -1.12034 0
-0.406846 -1.12285 0
-1.04011 0.0889906 0
0.68988 0.28764 0
0.161217 -0.787426 0
0.262741 -0.0446445 0
-0.338085 -0.565239 0
-0.465856 -1.38969 0
-0.0485257 -1.29005 0
0.681901 0.311012 0
-0.0135548 -0.15833 0
-0.120571 -0.498255 0
0.410645 -0.419952 0
-0.0747444 -0.108932 0
0.333437 -0.419016 0
0.0883884 -0.0154137 0
-0.0748247 -0.127182 0
0.022621 -0.293423 0
0.138188 -0.748806 0
-0.112405 -0.463369 0
0.390358 -0.0202485 0
0.0409715 -0.485525 0
-0.454798 -0.332597 0
-0.0716151 0.00513067 0
0.195261 -0.228744 0
-0.0376504 -0.573025 0
-0.0557198 -0.434367 0
0.126933 -0.0162588 0
0.17143 -0.155824 0
0.0604892 -0.651903 0
-0.0819136 -0.567636 0
-0.0528467 -0.219174 0
0.118658 -0.193418 0
0.125542 -0.338814 0
-0.0225942 -0.420658 0
-0.0710374 -0.357854 0
-0.000470832 -0.209828 0
0.0729381 -0.169103 0
0.0551758 -0.281005 0
-0.028696 -0.401592 0
-0.0329673 -0.368959 0
0.0250454 -0.191828 0
0.00393919 -0.1305 0
-0.063082 -0.225258 0
-0.0355417 -0.328444 0
0.0330802 -0.31176 0
0.0105894 -0.252181 0
-0.0383634 -0.221213 0
-0.0223572 -0.20932 0
0.00382143 -0.217778 0
-0.0212101 -0.255336 0
-0.070218 -0.291944 0
-0.0688817 -0.29154 0
-0.0236377 -0.26823 0
0.00160142 -0.256261 0
-0.00311334 -0.254207 0
0.118905 0.110707 0
0.232624 -0.0603153 0
-0.570732 0.423349 0
-0.873468 -0.378869 0
-0.386365 -0.255804 0
-0.052039 -0.0804409 0
-0.351346 0.22067 0
-0.88179 0.240877 0
1.18028 1.09779 0
-0.781823 -0.188498 0
-0.768908 1.08123 0
0.180765 0.432432 0
0.0849483 0.760844 0
-0.0881817 0.758688 0
0.601577 0.455016 0
0.188311 0.665972 0
0.56699 0.92728 0
-0.187144 0.125082 0
-0.266742 -0.900738 0
0.794381 -0.0785432 0
-0.404693 -1.215 0
0.798077 -0.400887 0
0.28015 -0.162022 0
0.775812 0.159666 0
-0.580793 -1.7117 0
-0.503216 -1.28277 0
-0.581778 -0.467754 0
0.596144 -0.589993 0
0.0241055 0.192606 0
0.333429 0.36604 0
-0.174156 0.643624 0
-0.852544 -0.0681388 0
0.699361 0.00655817 0
-0.185669 -0.289131 0
-0.317298 0.82243 0
0.394669 0.0131517 0
-0.181034 -0.748034 0
-0.0114191 -0.206319 0
0.0408681 0.0407599 0
-0.579024 -0.789639 0
-0.109307 -0.976492 0