<?xml version='1.0' encoding='UTF-8'?>
<VTKFile byte_order='LittleEndian' version='0.1' type = 'UnstructuredGrid'>
<UnstructuredGrid>
<FieldData>
<DataArray type='Float64' Name='Time' NumberOfComponents='1' NumberOfTuples='1' format='ascii'>
2.641
</DataArray>
</FieldData>
<Piece NumberOfCells='808' NumberOfPoints='808'>
<Points>
<DataArray NumberOfComponents='3' type='Float64' Name='position' format='ascii'>
0 0 0
0 0.025 0
0 0.05 0
0 0.075 0
0 0.1 0
0 0.125 0
0 0.15 0
0 0.175 0
0.025 0 0
0.05 0 0
0.075 0 0
0.1 0 0
0.125 0 0
0.15 0 0
0.175 0 0
0.2 0 0
0.225 0 0
0.25 0 0
0.275 0 0
0.299803 -0.000259447 0
0.323094 -0.00709915 0
0.340109 -0.00801498 0
0.372402 -0.0474376 0
0.400928 -0.0746454 0
0.427898 -0.09282 0
0.451121 -0.107072 0
0.476528 -0.126321 0
0.502456 -0.139708 0
0.525594 -0.157438 0
0.552959 -0.173747 0
0.577126 -0.183738 0
0.601359 -0.200732 0
0.625998 -0.215125 0
0.6515 -0.229138 0
0.677195 -0.244218 0
0.701653 -0.256842 0
0.728329 -0.268744 0
0.750044 -0.280812 0
0.775187 -0.295074 0
0.803986 -0.308162 0
0.825497 -0.319075 0
0.849809 -0.33189 0
0.877715 -0.344955 0
0.900972 -0.355914 0
0.924471 -0.367171 0
0.950588 -0.379252 0
0.976275 -0.390792 0
1.0011 -0.402179 0
1.02547 -0.413062 0
1.05057 -0.422782 0
1.07637 -0.432838 0
1.1009 -0.443697 0
1.12508 -0.453729 0
1.15104 -0.462948 0
1.17714 -0.472848 0
1.20155 -0.482957 0
1.22569 -0.492047 0
1.2508 -0.500616 0
1.27623 -0.509373 0
1.30122 -0.517927 0
1.32569 -0.526309 0
1.35003 -0.535077 0
1.37485 -0.54395 0
1.40037 -0.552191 0
1.42596 -0.55981 0
1.45083 -0.567276 0
1.47499 -0.57465 0
1.4993 -0.581668 0
1.5244 -0.588302 0
1.55003 -0.594793 0
1.57553 -0.601268 0
1.60057 -0.607583 0
1.62538 -0.613541 0
1.65026 -0.619102 0
1.67534 -0.624315 0
1.70051 -0.629228 0
1.72566 -0.633895 0
1.75081 -0.638396 0
1.77597 -0.642815 0
1.80115 -0.647261 0
1.82627 -0.651771 0
1.85129 -0.656273 0
1.87618 -0.660654 0
1.90095 -0.664838 0
1.92568 -0.668798 0
1.95045 -0.672526 0
1.97531 -0.676002 0
2.00029 -0.679194 0
2.02539 -0.682078 0
2.05055 -0.684653 0
2.07574 -0.686934 0
2.10093 -0.688944 0
2.1261 -0.690693 0
2.15124 -0.692186 0
2.17635 -0.693424 0
2.20144 -0.694415 0
2.2265 -0.695177 0
2.25152 -0.695743 0
2.27652 -0.696147 0
2.30147 -0.696425 0
2.3264 -0.696609 0
2.3513 -0.696725 0
2.37619 -0.696791 0
2.40107 -0.696822 0
2.42596 -0.69683 0
2.45087 -0.696823 0
2.4758 -0.696811 0
2.50076 -0.696803 0
0.0239977 0.0262739 0
0.0496345 0.0251259 0
0.0753736 0.0237616 0
0.0987113 0.0225132 0
0.123177 0.0242381 0
0.149411 0.0217753 0
0.17449 0.0226607 0
0.197013 0.0196191 0
0.225493 0.0191803 0
0.25119 0.0158809 0
0.271639 0.0117847 0
0.300093 0.0120146 0
0.325407 0.00354021 0
0.350704 -0.0115747 0
0.378525 -0.0306527 0
0.399733 -0.0486551 0
0.424079 -0.0683583 0
0.452565 -0.0883421 0
0.478013 -0.104838 0
0.501935 -0.118302 0
0.525722 -0.13316 0
0.551069 -0.148381 0
0.576143 -0.162322 0
0.60086 -0.178352 0
0.628171 -0.192756 0
0.65388 -0.203697 0
0.674209 -0.214463 0
0.699661 -0.231718 0
0.729665 -0.246318 0
0.752195 -0.257893 0
0.775524 -0.271132 0
0.802148 -0.282704 0
0.825434 -0.294409 0
0.850056 -0.307602 0
0.876425 -0.319781 0
0.900798 -0.331263 0
0.925535 -0.343586 0
0.951167 -0.355295 0
0.975919 -0.366068 0
1.00048 -0.37716 0
1.02538 -0.388319 0
1.0507 -0.398743 0
1.07636 -0.408771 0
1.10114 -0.419087 0
1.12538 -0.429176 0
1.15074 -0.438623 0
1.17663 -0.448176 0
1.20154 -0.457942 0
1.22591 -0.467261 0
1.25086 -0.476172 0
1.27617 -0.484887 0
1.30112 -0.493285 0
1.32563 -0.501638 0
1.35014 -0.510399 0
1.37505 -0.519236 0
1.40035 -0.527452 0
1.42564 -0.535003 0
1.45052 -0.542376 0
1.47502 -0.549746 0
1.49959 -0.556864 0
1.5246 -0.563602 0
1.54998 -0.570121 0
1.57536 -0.576533 0
1.60047 -0.582742 0
1.62538 -0.588646 0
1.65031 -0.594223 0
1.67537 -0.599472 0
1.70052 -0.6044 0
1.72567 -0.609054 0
1.75081 -0.613552 0
1.77598 -0.617983 0
1.80113 -0.622424 0
1.82624 -0.626897 0
1.85125 -0.631341 0
1.87613 -0.635669 0
1.90093 -0.639822 0
1.92568 -0.64378 0
1.95047 -0.647524 0
1.97534 -0.651024 0
2.00032 -0.654237 0
2.02541 -0.657136 0
2.05056 -0.659716 0
2.07574 -0.661995 0
2.10093 -0.663996 0
2.12609 -0.665733 0
2.15123 -0.667213 0
2.17635 -0.668438 0
2.20143 -0.669419 0
2.22649 -0.670172 0
2.25152 -0.670729 0
2.27651 -0.671124 0
2.30147 -0.671394 0
2.3264 -0.67157 0
2.3513 -0.671681 0
2.37619 -0.671744 0
2.40108 -0.671776 0
2.42597 -0.671788 0
2.45087 -0.671788 0
2.47581 -0.671783 0
2.50076 -0.67178 0
0.0262022 0.0472164 0
0.0489122 0.0452068 0
0.0731468 0.0470285 0
0.0984688 0.044008 0
0.122552 0.0429356 0
0.149053 0.0401781 0
0.174877 0.0404993 0
0.196587 0.0385378 0
0.223001 0.0388354 0
0.252469 0.037003 0
0.271278 0.0366247 0
0.302659 0.0233105 0
0.331247 0.0153107 0
0.34693 0.00554935 0
0.377913 -0.0146977 0
0.402891 -0.031837 0
0.426055 -0.0454114 0
0.452711 -0.0656159 0
0.478316 -0.0778164 0
0.500386 -0.093024 0
0.527294 -0.108805 0
0.552784 -0.123032 0
0.5766 -0.139764 0
0.602277 -0.150936 0
0.625808 -0.165489 0
0.651387 -0.181552 0
0.677473 -0.193975 0
0.701945 -0.20621 0
0.726187 -0.218915 0
0.750799 -0.232945 0
0.777293 -0.247173 0
0.802202 -0.257847 0
0.82489 -0.269162 0
0.85016 -0.283345 0
0.876341 -0.295278 0
0.900822 -0.30652 0
0.925677 -0.319071 0
0.951051 -0.33061 0
0.97579 -0.340975 0
1.00046 -0.352252 0
1.02545 -0.363846 0
1.05072 -0.37433 0
1.0763 -0.384338 0
1.10128 -0.394359 0
1.12555 -0.404275 0
1.15058 -0.413963 0
1.17635 -0.423436 0
1.2015 -0.432804 0
1.22603 -0.442255 0
1.25092 -0.451522 0
1.27615 -0.460254 0
1.30106 -0.468527 0
1.32563 -0.476857 0
1.35024 -0.485545 0
1.37516 -0.494246 0
1.40028 -0.502405 0
1.42539 -0.510023 0
1.4503 -0.517456 0
1.47503 -0.524805 0
1.49979 -0.531917 0
1.52477 -0.538724 0
1.54998 -0.545286 0
1.57525 -0.551686 0
1.60039 -0.557857 0
1.62538 -0.563706 0
1.65035 -0.56927 0
1.67541 -0.57457 0
1.70053 -0.579522 0
1.72568 -0.584166 0
1.75083 -0.588659 0
1.77598 -0.593092 0
1.80113 -0.597523 0
1.82622 -0.601962 0
1.85121 -0.606358 0
1.8761 -0.610645 0
1.90091 -0.614781 0
1.92568 -0.618744 0
1.95048 -0.622508 0
1.97536 -0.626031 0
2.00035 -0.629266 0
2.02543 -0.632179 0
2.05057 -0.634767 0
2.07575 -0.637046 0
2.10092 -0.639042 0
2.12609 -0.64077 0
2.15123 -0.64224 0
2.17635 -0.643455 0
2.20143 -0.644426 0
2.22649 -0.64517 0
2.25152 -0.645718 0
2.27651 -0.646104 0
2.30147 -0.646365 0
2.3264 -0.646535 0
2.3513 -0.646639 0
2.37619 -0.6467 0
2.40108 -0.646732 0
2.42597 -0.646746 0
2.45088 -0.64675 0
2.47581 -0.64675 0
2.50077 -0.646749 0
0.0247845 0.0749369 0
0.047509 0.0748513 0
0.0744736 0.0745867 0
0.0997861 0.0752533 0
0.122325 0.0738289 0
0.14809 0.0769254 0
0.175081 0.0714842 0
0.198609 0.0700312 0
0.221457 0.0698032 0
0.251942 0.0573838 0
0.275222 0.0599509 0
0.298085 0.0489378 0
0.333242 0.0388508 0
0.352706 0.0201184 0
0.380207 0.00817773 0
0.403576 -0.0028471 0
0.428657 -0.0251209 0
0.451602 -0.0374481 0
0.477629 -0.0521467 0
0.500526 -0.0684673 0
0.527585 -0.0877804 0
0.552765 -0.0967241 0
0.574687 -0.112536 0
0.602609 -0.13069 0
0.628075 -0.140143 0
0.650459 -0.155871 0
0.677141 -0.170709 0
0.702752 -0.181769 0
0.725164 -0.194099 0
0.750187 -0.207611 0
0.777185 -0.221082 0
0.801674 -0.232782 0
0.825454 -0.246049 0
0.851145 -0.259196 0
0.876441 -0.2699 0
0.900553 -0.28172 0
0.925327 -0.294209 0
0.950607 -0.305314 0
0.975785 -0.31635 0
1.00088 -0.327853 0
1.02568 -0.339154 0
1.0506 -0.349703 0
1.07605 -0.35964 0
1.10119 -0.369356 0
1.1257 -0.379445 0
1.15069 -0.389437 0
1.17627 -0.398629 0
1.20141 -0.407709 0
1.22605 -0.417283 0
1.25096 -0.426754 0
1.27612 -0.43552 0
1.30104 -0.443793 0
1.32566 -0.452071 0
1.35032 -0.460606 0
1.37518 -0.469153 0
1.40019 -0.477312 0
1.42521 -0.485034 0
1.45014 -0.492534 0
1.47501 -0.499887 0
1.4999 -0.506975 0
1.52489 -0.513778 0
1.55001 -0.520398 0
1.57519 -0.526837 0
1.60033 -0.532981 0
1.62538 -0.538788 0
1.65039 -0.544348 0
1.67544 -0.549669 0
1.70055 -0.554632 0
1.72569 -0.55927 0
1.75084 -0.563756 0
1.77599 -0.568183 0
1.80113 -0.572596 0
1.8262 -0.577 0
1.85119 -0.581356 0
1.87608 -0.585614 0
1.90089 -0.589741 0
1.92567 -0.593714 0
1.95048 -0.597501 0
1.97537 -0.601048 0
2.00036 -0.604303 0
2.02544 -0.607231 0
2.05058 -0.609825 0
2.07575 -0.612105 0
2.10092 -0.614096 0
2.12609 -0.615817 0
2.15123 -0.617277 0
2.17635 -0.618483 0
2.20143 -0.619443 0
2.22649 -0.620177 0
2.25152 -0.620714 0
2.27651 -0.621089 0
2.30147 -0.62134 0
2.3264 -0.621501 0
2.3513 -0.621599 0
2.37619 -0.621655 0
2.40108 -0.621687 0
2.42597 -0.621702 0
2.45088 -0.621709 0
2.47581 -0.621712 0
2.50077 -0.621713 0
0.0234333 0.0993308 0
0.0489329 0.096473 0
0.0754201 0.0935877 0
0.0975394 0.0930214 0
0.12116 0.0913365 0
0.147188 0.0894749 0
0.173254 0.087947 0
0.201193 0.0848005 0
0.223502 0.0839315 0
0.250516 0.0774113 0
0.276617 0.0701652 0
0.297613 0.0670212 0
0.330231 0.0565093 0
0.350716 0.0437296 0
0.37835 0.0309275 0
0.403721 0.017613 0
0.427668 -0.003847 0
0.45271 -0.00959615 0
0.478828 -0.0308819 0
0.502035 -0.0469751 0
0.527456 -0.0606652 0
0.552204 -0.0729776 0
0.575523 -0.08929 0
0.601729 -0.104791 0
0.627739 -0.114332 0
0.65041 -0.130008 0
0.675571 -0.144656 0
0.702446 -0.157528 0
0.726735 -0.170995 0
0.751056 -0.183192 0
0.77636 -0.195469 0
0.800934 -0.208427 0
0.825715 -0.221974 0
0.851386 -0.234123 0
0.876447 -0.245188 0
0.900639 -0.25671 0
0.925171 -0.268847 0
0.950418 -0.280846 0
0.975894 -0.292083 0
1.00106 -0.303234 0
1.02581 -0.314386 0
1.05053 -0.324797 0
1.07572 -0.334646 0
1.10101 -0.344568 0
1.12589 -0.354749 0
1.15088 -0.364775 0
1.17623 -0.373943 0
1.20132 -0.382827 0
1.22605 -0.392306 0
1.25095 -0.401881 0
1.27609 -0.410752 0
1.30103 -0.419036 0
1.32569 -0.427268 0
1.35035 -0.435671 0
1.37517 -0.444075 0
1.40012 -0.452228 0
1.42509 -0.460081 0
1.45004 -0.467666 0
1.47497 -0.474976 0
1.49993 -0.482012 0
1.52495 -0.488842 0
1.55004 -0.495519 0
1.57518 -0.501985 0
1.6003 -0.508121 0
1.62538 -0.513907 0
1.65041 -0.519456 0
1.67545 -0.524776 0
1.70055 -0.529741 0
1.72569 -0.53438 0
1.75085 -0.538857 0
1.776 -0.543271 0
1.80113 -0.547661 0
1.82619 -0.552033 0
1.85117 -0.556356 0
1.87606 -0.56059 0
1.90087 -0.564712 0
1.92566 -0.568698 0
1.95048 -0.572507 0
1.97537 -0.57608 0
2.00036 -0.579356 0
2.02544 -0.582296 0
2.05058 -0.584897 0
2.07575 -0.587176 0
2.10093 -0.589162 0
2.12609 -0.590876 0
2.15123 -0.592327 0
2.17635 -0.593522 0
2.20144 -0.594471 0
2.2265 -0.595193 0
2.25152 -0.595717 0
2.27652 -0.596079 0
2.30147 -0.596318 0
2.3264 -0.596469 0
2.35131 -0.596559 0
2.3762 -0.596611 0
2.40108 -0.596641 0
2.42597 -0.596658 0
2.45088 -0.596667 0
2.47581 -0.596673 0
2.50077 -0.596675 0
0.0246153 0.12329 0
0.0495771 0.121546 0
0.0730353 0.123177 0
0.0987003 0.117699 0
0.124521 0.114333 0
0.150195 0.11086 0
0.173743 0.109414 0
0.202651 0.10745 0
0.221309 0.0994557 0
0.250084 0.102688 0
0.277357 0.0934085 0
0.301259 0.0858822 0
0.328038 0.0747016 0
0.352233 0.0653613 0
0.378595 0.0502483 0
0.403805 0.0365686 0
0.427422 0.0194172 0
0.452917 0.0083631 0
0.477918 -0.0087704 0
0.501317 -0.0223702 0
0.528176 -0.0325483 0
0.552542 -0.0515642 0
0.576318 -0.0607011 0
0.601119 -0.0768674 0
0.626393 -0.0937341 0
0.65156 -0.105987 0
0.676276 -0.119115 0
0.70206 -0.131676 0
0.726577 -0.144284 0
0.750685 -0.159434 0
0.776433 -0.173184 0
0.80162 -0.184072 0
0.825694 -0.196011 0
0.850482 -0.20875 0
0.875898 -0.220571 0
0.900974 -0.232282 0
0.925698 -0.244201 0
0.950566 -0.256256 0
0.975792 -0.267803 0
1.00095 -0.27831 0
1.02576 -0.289342 0
1.05056 -0.299948 0
1.07564 -0.309786 0
1.10086 -0.319833 0
1.12599 -0.330057 0
1.15103 -0.340047 0
1.17615 -0.349243 0
1.20121 -0.358116 0
1.22608 -0.367475 0
1.25101 -0.376935 0
1.27606 -0.385868 0
1.30099 -0.394254 0
1.32569 -0.402429 0
1.35036 -0.410704 0
1.37517 -0.419055 0
1.40007 -0.427244 0
1.42501 -0.435157 0
1.44996 -0.442775 0
1.47493 -0.450053 0
1.49992 -0.457054 0
1.52496 -0.463923 0
1.55005 -0.470659 0
1.57518 -0.477137 0
1.60032 -0.483266 0
1.6254 -0.489046 0
1.65042 -0.494573 0
1.67545 -0.49988 0
1.70054 -0.504849 0
1.72568 -0.509492 0
1.75085 -0.513963 0
1.77601 -0.518357 0
1.80113 -0.522722 0
1.82619 -0.527067 0
1.85117 -0.531361 0
1.87606 -0.535574 0
1.90087 -0.53969 0
1.92565 -0.543687 0
1.95046 -0.547521 0
1.97535 -0.551123 0
2.00035 -0.554423 0
2.02544 -0.557377 0
2.05058 -0.559981 0
2.07575 -0.562258 0
2.10093 -0.564239 0
2.12609 -0.565945 0
2.15123 -0.567387 0
2.17635 -0.568572 0
2.20144 -0.569509 0
2.2265 -0.570217 0
2.25153 -0.570727 0
2.27652 -0.571075 0
2.30148 -0.5713 0
2.32641 -0.571439 0
2.35131 -0.571521 0
2.3762 -0.571568 0
2.40108 -0.571596 0
2.42597 -0.571614 0
2.45088 -0.571627 0
2.47581 -0.571635 0
2.50077 -0.571639 0
0.0240041 0.148171 0
0.0486394 0.14786 0
0.0728002 0.148572 0
0.0981726 0.147342 0
0.121741 0.147091 0
0.145891 0.146691 0
0.174867 0.140069 0
0.198693 0.138263 0
0.227964 0.136925 0
0.250778 0.127653 0
0.276207 0.123442 0
0.303949 0.112434 0
0.327447 0.106106 0
0.356438 0.088995 0
0.378402 0.0806992 0
0.405302 0.0600772 0
0.427594 0.0523037 0
0.45278 0.0307354 0
0.476806 0.0216414 0
0.502109 0.00608903 0
0.526409 -0.0107953 0
0.551455 -0.0243534 0
0.577465 -0.0446291 0
0.602169 -0.0558143 0
0.62707 -0.0642925 0
0.652073 -0.0811735 0
0.676582 -0.0957888 0
0.701391 -0.106005 0
0.725865 -0.119583 0
0.750542 -0.134825 0
0.7764 -0.14813 0
0.801829 -0.159344 0
0.825959 -0.171419 0
0.850241 -0.184306 0
0.875543 -0.196108 0
0.900958 -0.207784 0
0.925898 -0.220026 0
0.950649 -0.23185 0
0.975634 -0.24269 0
1.00081 -0.253364 0
1.02579 -0.264516 0
1.05067 -0.27543 0
1.07573 -0.285224 0
1.10087 -0.29493 0
1.12591 -0.30526 0
1.15095 -0.315444 0
1.17608 -0.324648 0
1.20116 -0.333483 0
1.22612 -0.342699 0
1.2511 -0.352064 0
1.27607 -0.361002 0
1.3009 -0.369401 0
1.32563 -0.377581 0
1.35039 -0.385824 0
1.37519 -0.394134 0
1.40003 -0.402349 0
1.42493 -0.410303 0
1.44991 -0.417892 0
1.47491 -0.425141 0
1.4999 -0.43216 0
1.52492 -0.439051 0
1.55002 -0.445823 0
1.5752 -0.452337 0
1.60036 -0.458441 0
1.62543 -0.464181 0
1.65043 -0.469703 0
1.67543 -0.474996 0
1.70051 -0.479959 0
1.72567 -0.484624 0
1.75086 -0.48909 0
1.77602 -0.493457 0
1.80114 -0.497799 0
1.8262 -0.502121 0
1.85118 -0.50639 0
1.87606 -0.510579 0
1.90087 -0.514682 0
1.92563 -0.518689 0
1.95044 -0.522551 0
1.97533 -0.526185 0
2.00033 -0.529511 0
2.02542 -0.532479 0
2.05058 -0.535084 0
2.07575 -0.537356 0
2.10093 -0.539328 0
2.12609 -0.541025 0
2.15123 -0.542459 0
2.17635 -0.543633 0
2.20145 -0.544557 0
2.22651 -0.545251 0
2.25154 -0.545744 0
2.27653 -0.546076 0
2.30149 -0.546286 0
2.32641 -0.546412 0
2.35131 -0.546485 0
2.3762 -0.546527 0
2.40108 -0.546553 0
2.42597 -0.546573 0
2.45088 -0.546589 0
2.47581 -0.546602 0
2.50076 -0.546608 0
0.0244023 0.173352 0
0.0504103 0.171136 0
0.0744788 0.167866 0
0.099276 0.167898 0
0.124966 0.166 0
0.150555 0.164578 0
0.175298 0.165973 0
0.198356 0.159991 0
0.226902 0.153194 0
0.249331 0.148691 0
0.277125 0.140605 0
0.301643 0.133271 0
0.326127 0.121922 0
0.353428 0.112464 0
0.376236 0.0985589 0
0.401769 0.0867909 0
0.428854 0.0729039 0
0.451934 0.0574782 0
0.478458 0.0411313 0
0.503268 0.0275671 0
0.52633 0.0106664 0
0.551942 -0.00133983 0
0.576627 -0.0120877 0
0.601178 -0.029354 0
0.626932 -0.044388 0
0.651406 -0.0552974 0
0.675773 -0.0701476 0
0.701447 -0.084674 0
0.727027 -0.096634 0
0.751019 -0.109442 0
0.775296 -0.121663 0
0.801195 -0.13401 0
0.826529 -0.148117 0
0.850694 -0.161234 0
0.8755 -0.171934 0
0.90095 -0.183239 0
0.925651 -0.196074 0
0.950169 -0.207519 0
0.975475 -0.217443 0
1.00094 -0.228601 0
1.02593 -0.240651 0
1.05075 -0.251241 0
1.07584 -0.260548 0
1.10093 -0.270293 0
1.12572 -0.280783 0
1.15072 -0.290964 0
1.17603 -0.300265 0
1.20116 -0.309038 0
1.22616 -0.31806 0
1.25119 -0.32745 0
1.27608 -0.336425 0
1.30079 -0.344671 0
1.32557 -0.35278 0
1.35042 -0.361141 0
1.37521 -0.369504 0
1.39996 -0.377642 0
1.42484 -0.385561 0
1.44987 -0.393191 0
1.47491 -0.400423 0
1.49988 -0.407384 0
1.52486 -0.414304 0
1.54998 -0.421153 0
1.57521 -0.427669 0
1.60041 -0.433715 0
1.62547 -0.439406 0
1.65042 -0.444896 0
1.67539 -0.450175 0
1.70047 -0.455157 0
1.72566 -0.459832 0
1.75087 -0.464273 0
1.77603 -0.468608 0
1.80115 -0.472929 0
1.82621 -0.477235 0
1.8512 -0.481477 0
1.87609 -0.485631 0
1.90087 -0.489711 0
1.92562 -0.49372 0
1.9504 -0.497609 0
1.97529 -0.50128 0
2.0003 -0.504635 0
2.02541 -0.507615 0
2.05057 -0.510218 0
2.07576 -0.512478 0
2.10093 -0.514437 0
2.1261 -0.516122 0
2.15124 -0.517544 0
2.17636 -0.518706 0
2.20146 -0.519616 0
2.22652 -0.520292 0
2.25155 -0.520766 0
2.27654 -0.521079 0
2.3015 -0.521273 0
2.32642 -0.521385 0
2.35132 -0.521447 0
2.3762 -0.521484 0
2.40108 -0.521509 0
2.42597 -0.521532 0
2.45087 -0.521554 0
2.4758 -0.521573 0
2.50076 -0.521585 0
</DataArray>
</Points>
<PointData>
<DataArray NumberOfComponents='1' type='Int32' Name='Particle Type' format='ascii'>
0
0
0
0
0
0
0
0
0
0
0
0
0
0
0
0
0
0
0
0
0
0
1
1
1
1
1
1
1
1
1
1
1
1
1
1
1
1
1
1
1
1
1
1
1
1
1
1
1
1
1
1
1
1
1
1
1
1
1
1
1
1
1
1
1
1
1
1
1
1
1
1
1
1
1
1
1
1
1
1
1
1
1
1
1
1
1
1
1
1
1
1
1
1
1
1
1
1
1
1
1
1
1
1
1
1
1
1
1
1
1
1
1
1
1
1
1
1
1
1
1
1
1
1
1
1
1
1
1
1
1
1
1
1
1
1
1
1
1
1
1
1
1
1
1
1
1
1
1
1
1
1
1
1
1
1
1
1
1
1
1
1
1
1
1
1
1
1
1
1
1
1
1
1
1
1
1
1
1
1
1
1
1
1
1
1
1
1
1
1
1
1
1
1
1
1
1
1
1
1
1
1
1
1
1
1
1
1
1
1
1
1
1
1
1
1
1
1
1
1
1
1
1
1
1
1
1
1
1
1
1
1
1
1
1
1
1
1
1
1
1
1
1
1
1
1
1
1
1
1
1
1
1
1
1
1
1
1
1
1
1
1
1
1
1
1
1
1
1
1
1
1
1
1
1
1
1
1
1
1
1
1
1
1
1
1
1
1
1
1
1
1
1
1
1
1
1
1
1
1
1
1
1
1
1
1
1
1
1
1
1
1
1
1
1
1
1
1
1
1
1
1
1
1
1
1
1
1
1
1
1
1
1
1
1
1
1
1
1
1
1
1
1
1
1
1
1
1
1
1
1
1
1
1
1
1
1
1
1
1
1
1
1
1
1
1
1
1
1
1
1
1
1
1
1
1
1
1
1
1
1
1
1
1
1
1
1
1
1
1
1
1
1
1
1
1
1
1
1
1
1
1
1
1
1
1
1
1
1
1
1
1
1
1
1
1
1
1
1
1
1
1
1
1
1
1
1
1
1
1
1
1
1
1
1
1
1
1
1
1
1
1
1
1
1
1
1
1
1
1
1
1
1
1
1
1
1
1
1
1
1
1
1
1
1
1
1
1
1
1
1
1
1
1
1
1
1
1
1
1
1
1
1
1
1
1
1
1
1
1
1
1
1
1
1
1
1
1
1
1
1
1
1
1
1
1
1
1
1
1
1
1
1
1
1
1
1
1
1
1
1
1
1
1
1
1
1
1
1
1
1
1
1
1
1
1
1
1
1
1
1
1
1
1
1
1
1
1
1
1
1
1
1
1
1
1
1
1
1
1
1
1
1
1
1
1
1
1
1
1
1
1
1
1
1
1
1
1
1
1
1
1
1
1
1
1
1
1
1
1
1
1
1
1
1
1
1
1
1
1
1
1
1
1
1
1
1
1
1
1
1
1
1
1
1
1
1
1
1
1
1
1
1
1
1
1
1
1
1
1
1
1
1
1
1
1
1
1
1
1
1
1
1
1
1
1
1
1
1
1
1
1
1
1
1
1
1
1
1
1
1
1
1
1
1
1
1
1
1
1
1
1
1
1
1
1
1
1
1
1
1
1
1
1
1
1
1
1
1
1
1
1
1
1
1
1
1
1
1
1
1
1
1
1
1
1
1
1
1
1
1
1
1
1
1
1
1
1
1
1
1
1
1
1
1
1
1
1
1
1
1
1
1
1
1
1
1
1
1
1
1
1
1
1
1
1
1
1
1
1
1
1
1
1
1
1
1
1
1
1
1
1
1
1
1
1
1
1
1
1
1
1
1
1
1
1
1
1
1
1
1
1
1
1
1
1
1
1
1
1
1
1
1
1
1
1
1
1
1
1
1
1
1
1
1
1
1
1
</DataArray>
<DataArray NumberOfComponents='3' type='Float64' Name='Velocity' format='ascii'>
0 0 0
0 0 0
0 0 0
0 0 0
0 0 0
0 0 0
0 0 0
0 0 0
0 0 0
0 0 0
0 0 0
0 0 0
0 0 0
0 0 0
0 0 0
0 0 0
0 0 0
0 0 0
0 0 0
-0.047379 -0.0530152 0
-0.0134291 -0.102681 0
-0.0400227 -0.0455907 0
0.0106314 -0.0458772 0
-0.0722602 -0.00982765 0
0.0107261 -0.168445 0
0.0658665 -0.091818 0
-0.0506512 -0.0369281 0
0.0274834 -0.0880949 0
-0.0255109 0.0657806 0
-0.0481918 -0.177288 0
0.052483 -0.108505 0
0.00683027 0.00317844 0
0.00930856 -0.0853681 0
-0.0582902 -0.0256102 0
-0.00591107 -0.0919527 0
-0.0275672 -0.16923 0
0.0250567 -0.176653 0
0.0786448 -0.116171 0
-0.122016 -0.0792637 0
-0.013528 -0.161036 0
0.094379 -0.161614 0
-0.0732607 -0.110763 0
-0.0218474 -0.160225 0
0.0732319 -0.194514 0
-0.00542705 -0.160974 0
-0.042641 -0.155047 0
-0.0172544 -0.170303 0
0.00716386 -0.178488 0
0.00781331 -0.213274 0
-0.0216737 -0.22726 0
-0.0114725 -0.198538 0
0.0216219 -0.195443 0
-0.0111297 -0.228142 0
-0.0483216 -0.228114 0
-0.0116906 -0.210116 0
0.0250603 -0.228526 0
0.00740546 -0.258434 0
-0.0156854 -0.26011 0
-0.0113339 -0.257791 0
0.0059669 -0.265053 0
0.0171981 -0.259232 0
0.0100489 -0.247899 0
-0.012505 -0.257796 0
-0.0263633 -0.281632 0
-0.0122022 -0.294913 0
0.016365 -0.297988 0
0.0266987 -0.304437 0
0.00805162 -0.316424 0
-0.0170019 -0.324674 0
-0.0236719 -0.327013 0
-0.0118514 -0.329172 0
0.00136067 -0.337206 0
0.00399817 -0.348773 0
-0.00129798 -0.360273 0
-0.0061162 -0.370066 0
-0.00709703 -0.378218 0
-0.00654764 -0.384177 0
-0.00679075 -0.387779 0
-0.0073673 -0.388699 0
-0.00668247 -0.387081 0
-0.00391911 -0.386208 0
0.000429331 -0.388565 0
0.00492731 -0.394039 0
0.0079121 -0.401007 0
0.00827173 -0.408263 0
0.00597852 -0.415771 0
0.0020486 -0.424038 0
-0.00205709 -0.433214 0
-0.00516182 -0.442828 0
-0.00677994 -0.452208 0
-0.00707056 -0.460993 0
-0.00651779 -0.469261 0
-0.00559777 -0.477298 0
-0.00459504 -0.485282 0
-0.00358751 -0.493131 0
-0.00253171 -0.500545 0
-0.0013665 -0.507167 0
-7.68147e-05 -0.512738 0
0.00129278 -0.517172 0
0.00265744 -0.520542 0
0.00392235 -0.523017 0
0.00500871 -0.524798 0
0.0058691 -0.526063 0
0.00649184 -0.526951 0
0.00689673 -0.527562 0
0.00712533 -0.527966 0
0.00722867 -0.528215 0
0.00725386 -0.528353 0
-0.00740715 0.107827 0
0.00952763 -0.12141 0
0.0410543 -0.00294318 0
0.0160661 0.0439978 0
-0.00171286 0.0828332 0
-0.0124392 0.0792205 0
-0.0281133 0.17169 0
0.00802863 0.0143463 0
0.0816072 0.22982 0
-0.10241 -0.0251743 0
-0.249913 0.169411 0
0.425083 -0.303953 0
-0.211608 0.13895 0
-0.0907377 0.0452993 0
0.0355176 -0.0400844 0
0.184637 -0.0147128 0
-0.0809619 0.168028 0
-0.070064 0.0378937 0
0.0206793 -0.0333071 0
0.0551554 -0.137917 0
0.0293601 -0.0316053 0
-0.0277127 -0.0969498 0
-0.00576417 -0.0407159 0
-0.0677223 -0.062875 0
-0.0973599 -0.171771 0
0.0995867 -0.277578 0
0.117934 -0.0733754 0
-0.173744 0.0537355 0
-0.0761886 -0.125888 0
0.113859 -0.144947 0
-0.0138647 -0.148553 0
-0.00149146 -0.184112 0
0.0473146 -0.137578 0
-0.0374155 -0.127973 0
-0.0225412 -0.162175 0
0.0110337 -0.150676 0
-0.0227658 -0.144429 0
-0.0110165 -0.18341 0
0.0136904 -0.192826 0
0.00323266 -0.180686 0
-0.01051 -0.189146 0
-0.0258452 -0.209484 0
-0.0156912 -0.210531 0
0.0168809 -0.20691 0
0.00475933 -0.223659 0
-0.0312452 -0.233615 0
-0.0209013 -0.224095 0
0.00990142 -0.228977 0
0.00742161 -0.245458 0
-0.0108891 -0.253703 0
-0.00921284 -0.26161 0
0.00685482 -0.268485 0
0.0140098 -0.260505 0
0.00513571 -0.249412 0
-0.00985328 -0.259192 0
-0.0159248 -0.28352 0
-0.00661643 -0.29803 0
0.00884494 -0.29915 0
0.0145154 -0.301899 0
0.00487249 -0.312722 0
-0.0100751 -0.322645 0
-0.016532 -0.327497 0
-0.0110672 -0.332002 0
-0.00210111 -0.339945 0
0.00122317 -0.349237 0
-0.00165308 -0.359226 0
-0.0053732 -0.369128 0
-0.0066553 -0.378288 0
-0.0065655 -0.384707 0
-0.00677021 -0.387698 0
-0.00697079 -0.388641 0
-0.00599547 -0.387871 0
-0.00328827 -0.387918 0
0.000645916 -0.390551 0
0.00456818 -0.3955 0
0.00711225 -0.401518 0
0.00739332 -0.407928 0
0.00538866 -0.414992 0
0.00191075 -0.423209 0
-0.00181975 -0.432573 0
-0.00475272 -0.442478 0
-0.00639469 -0.452166 0
-0.00681962 -0.46121 0
-0.0064138 -0.469645 0
-0.0055901 -0.477749 0
-0.00461977 -0.485726 0
-0.00360213 -0.493536 0
-0.00252396 -0.500915 0
-0.00134497 -0.507525 0
-5.69798e-05 -0.513102 0
0.00129869 -0.517544 0
0.00264451 -0.520907 0
0.00389244 -0.523349 0
0.00496789 -0.525071 0
0.00582483 -0.526261 0
0.00645071 -0.527069 0
0.00686294 -0.527608 0
0.00709962 -0.527956 0
0.00720792 -0.528165 0
0.00723112 -0.528279 0
0.0482741 -0.0075719 0
-0.0456403 -0.0257275 0
-0.0343793 0.189266 0
-0.034234 -0.140293 0
-0.00870626 -0.0482404 0
-0.0251264 -0.16556 0
-2.23264e-05 -0.183133 0
-0.108052 -0.359703 0
0.193506 -0.0301194 0
0.0831876 -0.468516 0
-0.119402 0.195837 0
-0.0599775 -0.137975 0
-0.0347992 -0.222723 0
0.115253 -0.140998 0
-0.157742 0.110703 0
0.0349604 -0.175903 0
-0.0136005 -0.056231 0
-0.0873653 -0.0511446 0
0.0546102 -0.235355 0
0.00769551 -0.0217294 0
-0.091876 -0.129272 0
0.02726 -0.00343496 0
-0.00501923 -0.130478 0
0.031129 -0.166823 0
0.0230749 0.00826729 0
-0.0684925 -0.0780664 0
-0.0144577 -0.171844 0
0.0282792 -0.156083 0
0.0206645 -0.109938 0
-0.0350766 -0.0612247 0
-0.0455664 -0.141747 0
0.0581904 -0.222954 0
0.0432625 -0.117695 0
-0.0480124 -0.102148 0
-0.0221459 -0.175521 0
0.00563225 -0.14981 0
-0.0170771 -0.145075 0
-0.00599234 -0.196994 0
0.00998044 -0.198576 0
-0.00045837 -0.161079 0
-0.0124041 -0.178666 0
-0.0239451 -0.208629 0
-0.0184867 -0.215672 0
0.0125963 -0.219001 0
0.0128841 -0.225395 0
-0.0214293 -0.229702 0
-0.0248107 -0.234328 0
0.00166695 -0.2335 0
0.00586114 -0.23339 0
-0.00846234 -0.245945 0
-0.00711875 -0.264672 0
0.00684213 -0.271352 0
0.0115143 -0.262547 0
0.00340225 -0.254298 0
-0.00625417 -0.264031 0
-0.00875621 -0.283441 0
-0.00379162 -0.295002 0
0.00323499 -0.297721 0
0.00597039 -0.302721 0
0.00175322 -0.311425 0
-0.0061291 -0.320744 0
-0.0111152 -0.326964 0
-0.00956005 -0.332486 0
-0.00419193 -0.341207 0
-0.00105482 -0.350634 0
-0.0023806 -0.35844 0
-0.00504343 -0.36765 0
-0.00623952 -0.378453 0
-0.00643789 -0.385256 0
-0.00667258 -0.387925 0
-0.00661535 -0.388926 0
-0.00540483 -0.388776 0
-0.00272582 -0.389421 0
0.000886792 -0.39207 0
0.00435572 -0.396423 0
0.00654768 -0.401626 0
0.0067353 -0.407406 0
0.00489899 -0.414191 0
0.00172632 -0.422426 0
-0.00172105 -0.431973 0
-0.00449573 -0.442122 0
-0.0061194 -0.452057 0
-0.00661955 -0.461314 0
-0.00631725 -0.469899 0
-0.00557489 -0.478085 0
-0.00464323 -0.486089 0
-0.00362809 -0.493896 0
-0.0025352 -0.501267 0
-0.00134096 -0.507877 0
-4.56097e-05 -0.513463 0
0.00130869 -0.51791 0
0.00264763 -0.52126 0
0.00388729 -0.523665 0
0.00495614 -0.525325 0
0.00580966 -0.526436 0
0.0064353 -0.527161 0
0.00684927 -0.527624 0
0.00708755 -0.52791 0
0.00719482 -0.528076 0
0.00721159 -0.528163 0
-0.0312779 -0.0257125 0
-0.00820787 0.0397881 0
0.0833835 0.120374 0
0.0105856 -0.083486 0
0.0193863 0.241039 0
0.0655519 -0.0192436 0
-0.0320139 0.409213 0
-0.0901493 0.00783472 0
0.00520656 0.403207 0
-0.0583832 0.105648 0
0.0383205 -0.102568 0
0.112067 0.189287 0
-0.00830934 0.118386 0
0.0337164 0.227844 0
0.0544855 -0.350671 0
-0.0204646 0.109212 0
0.0818536 0.0180484 0
0.0149792 -0.142935 0
0.0170634 -0.0152056 0
0.00986812 0.0901011 0
-0.094019 -0.0531231 0
0.0808144 -0.223411 0
-0.0141829 0.132601 0
-0.112985 -0.125231 0
0.0627365 -0.151568 0
0.0112239 -0.000259119 0
-0.0646416 -0.15784 0
0.0588801 -0.195149 0
0.0580318 -0.139133 0
-0.0666612 -0.0976742 0
-0.0466875 -0.133542 0
0.0319219 -0.13727 0
-0.00122525 -0.0916543 0
-0.0312164 -0.165814 0
0.0127089 -0.188738 0
0.0187593 -0.13704 0
-0.010188 -0.16359 0
-0.0153383 -0.188644 0
-0.0134071 -0.170491 0
-0.00613676 -0.164573 0
0.000877417 -0.183972 0
-0.0132991 -0.208076 0
-0.0186062 -0.225851 0
0.00377966 -0.222758 0
0.00751271 -0.213202 0
-0.0170825 -0.23047 0
-0.0200983 -0.247721 0
0.000189705 -0.235289 0
0.00372273 -0.225595 0
-0.00745526 -0.241805 0
-0.00632892 -0.264083 0
0.00535832 -0.272356 0
0.00990042 -0.267044 0
0.00436303 -0.261302 0
-0.00251103 -0.267305 0
-0.00493468 -0.281235 0
-0.00296192 -0.291432 0
2.81115e-05 -0.296196 0
0.000828578 -0.302737 0
-0.00111961 -0.312415 0
-0.00470182 -0.319807 0
-0.00774201 -0.324792 0
-0.00788207 -0.331925 0
-0.00518786 -0.342318 0
-0.00282288 -0.351214 0
-0.00306973 -0.35804 0
-0.00473622 -0.367224 0
-0.0058827 -0.378701 0
-0.00637919 -0.385808 0
-0.00663576 -0.388389 0
-0.00633111 -0.38953 0
-0.00491035 -0.38982 0
-0.00225351 -0.390774 0
0.00111438 -0.39324 0
0.00426042 -0.396978 0
0.0062091 -0.401472 0
0.00631341 -0.406754 0
0.00454565 -0.413356 0
0.00153373 -0.421661 0
-0.00173818 -0.431413 0
-0.00438881 -0.441801 0
-0.00596751 -0.451955 0
-0.00648846 -0.461389 0
-0.00624119 -0.470107 0
-0.00555761 -0.478379 0
-0.00466584 -0.486434 0
-0.0036641 -0.49427 0
-0.00256497 -0.50166 0
-0.00135588 -0.508287 0
-4.60063e-05 -0.513884 0
0.00131783 -0.51833 0
0.00266051 -0.521657 0
0.00389953 -0.524012 0
0.0049655 -0.525598 0
0.0058157 -0.526619 0
0.0064386 -0.527252 0
0.00685054 -0.527629 0
0.00708688 -0.527846 0
0.00719129 -0.527962 0
0.00720298 -0.528017 0
-0.052349 -0.00220732 0
0.0323688 -0.0515102 0
-0.022589 -0.0209737 0
-0.0598986 -0.0958177 0
-0.0303977 0.0398104 0
-0.0185784 -0.223885 0
-0.00716634 0.0929627 0
0.0224959 -0.160778 0
0.0509801 -0.0110751 0
0.0779043 -0.0744239 0
-0.0382252 0.0747639 0
-0.0418653 -0.142147 0
0.0631641 -0.17982 0
0.00622941 0.0554675 0
-0.0117265 -0.24494 0
-0.0349552 0.205885 0
0.0301245 -0.212495 0
-0.0848568 -0.056651 0
0.022679 0.144942 0
0.0203232 -0.0538029 0
-0.00802825 -0.122749 0
0.0419441 -0.0936127 0
0.0121792 0.0197351 0
-0.0657626 -0.198581 0
0.0333809 -0.155882 0
0.0519825 -0.00331554 0
-0.0721027 -0.0935155 0
-0.041718 -0.090282 0
0.0225201 -0.140673 0
-0.000904524 -0.170286 0
0.000232623 -0.135878 0
0.00557433 -0.0939219 0
-0.0263892 -0.118596 0
-0.0258984 -0.178795 0
0.0146857 -0.185588 0
0.0244426 -0.161047 0
-0.0024036 -0.143795 0
-0.0239953 -0.159089 0
-0.0213198 -0.176298 0
-0.00494366 -0.175291 0
0.00640664 -0.191309 0
-0.00188723 -0.216569 0
-0.0164167 -0.221187 0
-0.00952051 -0.214626 0
-0.00152145 -0.210932 0
-0.0122269 -0.229666 0
-0.0136412 -0.251948 0
0.000392762 -0.242219 0
0.0029453 -0.225309 0
-0.00673895 -0.237361 0
-0.00690355 -0.262057 0
0.0038929 -0.27332 0
0.0094996 -0.270551 0
0.00548249 -0.26717 0
-0.000306766 -0.270788 0
-0.00287029 -0.278781 0
-0.00261208 -0.286896 0
-0.00153938 -0.295511 0
-0.00157583 -0.3049 0
-0.00311928 -0.312766 0
-0.00502379 -0.31796 0
-0.00641746 -0.323102 0
-0.00680343 -0.331296 0
-0.00563397 -0.342509 0
-0.00380787 -0.351563 0
-0.00324431 -0.358208 0
-0.00426902 -0.3674 0
-0.00563724 -0.378913 0
-0.00652011 -0.386254 0
-0.00674607 -0.389022 0
-0.00614825 -0.390372 0
-0.00454292 -0.390911 0
-0.00193233 -0.39195 0
0.00126566 -0.394161 0
0.00425876 -0.397347 0
0.00611886 -0.401225 0
0.00617317 -0.406062 0
0.00437562 -0.412501 0
0.00136737 -0.420894 0
-0.00185802 -0.430877 0
-0.00443699 -0.441526 0
-0.00595037 -0.451897 0
-0.006437 -0.461487 0
-0.00619345 -0.470314 0
-0.00554036 -0.478664 0
-0.00468416 -0.486779 0
-0.00370486 -0.494664 0
-0.00260881 -0.502095 0
-0.00138729 -0.508752 0
-5.78855e-05 -0.514366 0
0.00132459 -0.518805 0
0.00268026 -0.522099 0
0.00392535 -0.524392 0
0.00499165 -0.525892 0
0.0058386 -0.526814 0
0.00645677 -0.527346 0
0.006864 -0.527633 0
0.00709652 -0.527775 0
0.0071984 -0.527839 0
0.0072089 -0.527862 0
-0.0370462 0.0731767 0
0.0222188 0.0439952 0
-0.0570071 0.158256 0
0.0522003 0.0123383 0
-0.0364088 0.160551 0
0.0242767 0.265579 0
0.136839 0.0927568 0
-0.0897022 0.249594 0
0.016655 0.0608955 0
0.0600991 -0.218103 0
-0.112693 0.240867 0