<?xml version='1.0' encoding='UTF-8'?>
<VTKFile byte_order='LittleEndian' version='0.1' type = 'UnstructuredGrid'>
<UnstructuredGrid>
<FieldData>
<DataArray type='Float64' Name='Time' NumberOfComponents='1' NumberOfTuples='1' format='ascii'>
0.04
</DataArray>
</FieldData>
<Piece NumberOfCells='808' NumberOfPoints='808'>
<Points>
<DataArray NumberOfComponents='3' type='Float64' Name='position' format='ascii'>
0 0 0
0 0.025 0
0 0.05 0
0 0.075 0
0 0.1 0
0 0.125 0
0 0.15 0
0 0.175 0
0.025 0 0
0.05 0 0
0.075 0 0
0.1 0 0
0.125 0 0
0.15 0 0
0.175 0 0
0.2 0 0
0.225 0 0
0.25 0 0
0.275 0 0
0.3 0 0
0.325 0 0
0.35 0 0
0.375001 -0.000141582 0
0.4 -0.000147712 0
0.425 -0.00014818 0
0.45 -0.000148199 0
0.475 -0.0001482 0
0.5 -0.0001482 0
0.525 -0.0001482 0
0.55 -0.0001482 0
0.575 -0.0001482 0
0.6 -0.0001482 0
0.625 -0.0001482 0
0.65 -0.0001482 0
0.675 -0.0001482 0
0.7 -0.0001482 0
0.725 -0.0001482 0
0.75 -0.0001482 0
0.775 -0.0001482 0
0.8 -0.0001482 0
0.825 -0.0001482 0
0.85 -0.0001482 0
0.875 -0.0001482 0
0.9 -0.0001482 0
0.925 -0.0001482 0
0.95 -0.0001482 0
0.975 -0.0001482 0
1 -0.0001482 0
1.025 -0.0001482 0
1.05 -0.0001482 0
1.075 -0.0001482 0
1.1 -0.0001482 0
1.125 -0.0001482 0
1.15 -0.0001482 0
1.175 -0.0001482 0
1.2 -0.0001482 0
1.225 -0.0001482 0
1.25 -0.0001482 0
1.275 -0.0001482 0
1.3 -0.0001482 0
1.325 -0.0001482 0
1.35 -0.0001482 0
1.375 -0.0001482 0
1.4 -0.0001482 0
1.425 -0.0001482 0
1.45 -0.0001482 0
1.475 -0.0001482 0
1.5 -0.0001482 0
1.525 -0.0001482 0
1.55 -0.0001482 0
1.575 -0.0001482 0
1.6 -0.0001482 0
1.625 -0.0001482 0
1.65 -0.0001482 0
1.675 -0.0001482 0
1.7 -0.0001482 0
1.725 -0.0001482 0
1.75 -0.0001482 0
1.775 -0.0001482 0
1.8 -0.0001482 0
1.825 -0.0001482 0
1.85 -0.0001482 0
1.875 -0.0001482 0
1.9 -0.0001482 0
1.925 -0.0001482 0
1.95 -0.0001482 0
1.975 -0.0001482 0
2 -0.0001482 0
2.025 -0.0001482 0
2.05 -0.0001482 0
2.075 -0.0001482 0
2.1 -0.0001482 0
2.125 -0.0001482 0
2.15 -0.0001482 0
2.175 -0.0001482 0
2.2 -0.0001482 0
2.225 -0.0001482 0
2.25 -0.0001482 0
2.275 -0.0001482 0
2.3 -0.0001482 0
2.325 -0.0001482 0
2.35 -0.0001482 0
2.375 -0.0001482 0
2.4 -0.0001482 0
2.425 -0.0001482 0
2.45 -0.0001482 0
2.475 -0.0001482 0
2.5 -0.0001482 0
0.0249992 0.0248713 0
0.0499997 0.0248643 0
0.075 0.0248636 0
0.1 0.0248635 0
0.125 0.0248635 0
0.15 0.0248635 0
0.175 0.0248635 0
0.2 0.0248635 0
0.225 0.0248635 0
0.25 0.0248635 0
0.275 0.0248635 0
0.3 0.0248635 0
0.325 0.0248633 0
0.350001 0.0248613 0
0.375001 0.0248542 0
0.4 0.0248521 0
0.425 0.0248518 0
0.45 0.0248518 0
0.475 0.0248518 0
0.5 0.0248518 0
0.525 0.0248518 0
0.55 0.0248518 0
0.575 0.0248518 0
0.6 0.0248518 0
0.625 0.0248518 0
0.65 0.0248518 0
0.675 0.0248518 0
0.7 0.0248518 0
0.725 0.0248518 0
0.75 0.0248518 0
0.775 0.0248518 0
0.8 0.0248518 0
0.825 0.0248518 0
0.85 0.0248518 0
0.875 0.0248518 0
0.9 0.0248518 0
0.925 0.0248518 0
0.95 0.0248518 0
0.975 0.0248518 0
1 0.0248518 0
1.025 0.0248518 0
1.05 0.0248518 0
1.075 0.0248518 0
1.1 0.0248518 0
1.125 0.0248518 0
1.15 0.0248518 0
1.175 0.0248518 0
1.2 0.0248518 0
1.225 0.0248518 0
1.25 0.0248518 0
1.275 0.0248518 0
1.3 0.0248518 0
1.325 0.0248518 0
1.35 0.0248518 0
1.375 0.0248518 0
1.4 0.0248518 0
1.425 0.0248518 0
1.45 0.0248518 0
1.475 0.0248518 0
1.5 0.0248518 0
1.525 0.0248518 0
1.55 0.0248518 0
1.575 0.0248518 0
1.6 0.0248518 0
1.625 0.0248518 0
1.65 0.0248518 0
1.675 0.0248518 0
1.7 0.0248518 0
1.725 0.0248518 0
1.75 0.0248518 0
1.775 0.0248518 0
1.8 0.0248518 0
1.825 0.0248518 0
1.85 0.0248518 0
1.875 0.0248518 0
1.9 0.0248518 0
1.925 0.0248518 0
1.95 0.0248518 0
1.975 0.0248518 0
2 0.0248518 0
2.025 0.0248518 0
2.05 0.0248518 0
2.075 0.0248518 0
2.1 0.0248518 0
2.125 0.0248518 0
2.15 0.0248518 0
2.175 0.0248518 0
2.2 0.0248518 0
2.225 0.0248518 0
2.25 0.0248518 0
2.275 0.0248518 0
2.3 0.0248518 0
2.325 0.0248518 0
2.35 0.0248518 0
2.375 0.0248518 0
2.4 0.0248518 0
2.425 0.0248518 0
2.45 0.0248518 0
2.475 0.0248518 0
2.5 0.0248518 0
0.0249997 0.0498641 0
0.0499999 0.0498553 0
0.075 0.0498543 0
0.1 0.0498542 0
0.125 0.0498542 0
0.15 0.0498542 0
0.175 0.0498542 0
0.2 0.0498542 0
0.225 0.0498542 0
0.25 0.0498542 0
0.275 0.0498542 0
0.3 0.0498542 0
0.325 0.0498541 0
0.35 0.0498536 0
0.375 0.0498525 0
0.4 0.0498519 0
0.425 0.0498518 0
0.45 0.0498518 0
0.475 0.0498518 0
0.5 0.0498518 0
0.525 0.0498518 0
0.55 0.0498518 0
0.575 0.0498518 0
0.6 0.0498518 0
0.625 0.0498518 0
0.65 0.0498518 0
0.675 0.0498518 0
0.7 0.0498518 0
0.725 0.0498518 0
0.75 0.0498518 0
0.775 0.0498518 0
0.8 0.0498518 0
0.825 0.0498518 0
0.85 0.0498518 0
0.875 0.0498518 0
0.9 0.0498518 0
0.925 0.0498518 0
0.95 0.0498518 0
0.975 0.0498518 0
1 0.0498518 0
1.025 0.0498518 0
1.05 0.0498518 0
1.075 0.0498518 0
1.1 0.0498518 0
1.125 0.0498518 0
1.15 0.0498518 0
1.175 0.0498518 0
1.2 0.0498518 0
1.225 0.0498518 0
1.25 0.0498518 0
1.275 0.0498518 0
1.3 0.0498518 0
1.325 0.0498518 0
1.35 0.0498518 0
1.375 0.0498518 0
1.4 0.0498518 0
1.425 0.0498518 0
1.45 0.0498518 0
1.475 0.0498518 0
1.5 0.0498518 0
1.525 0.0498518 0
1.55 0.0498518 0
1.575 0.0498518 0
1.6 0.0498518 0
1.625 0.0498518 0
1.65 0.0498518 0
1.675 0.0498518 0
1.7 0.0498518 0
1.725 0.0498518 0
1.75 0.0498518 0
1.775 0.0498518 0
1.8 0.0498518 0
1.825 0.0498518 0
1.85 0.0498518 0
1.875 0.0498518 0
1.9 0.0498518 0
1.925 0.0498518 0
1.95 0.0498518 0
1.975 0.0498518 0
2 0.0498518 0
2.025 0.0498518 0
2.05 0.0498518 0
2.075 0.0498518 0
2.1 0.0498518 0
2.125 0.0498518 0
2.15 0.0498518 0
2.175 0.0498518 0
2.2 0.0498518 0
2.225 0.0498518 0
2.25 0.0498518 0
2.275 0.0498518 0
2.3 0.0498518 0
2.325 0.0498518 0
2.35 0.0498518 0
2.375 0.0498518 0
2.4 0.0498518 0
2.425 0.0498518 0
2.45 0.0498518 0
2.475 0.0498518 0
2.5 0.0498518 0
0.025 0.0748627 0
0.05 0.0748533 0
0.075 0.0748522 0
0.1 0.0748521 0
0.125 0.0748521 0
0.15 0.0748521 0
0.175 0.0748521 0
0.2 0.0748521 0
0.225 0.0748521 0
0.25 0.0748521 0
0.275 0.0748521 0
0.3 0.0748521 0
0.325 0.0748521 0
0.35 0.074852 0
0.375 0.0748519 0
0.4 0.0748518 0
0.425 0.0748518 0
0.45 0.0748518 0
0.475 0.0748518 0
0.5 0.0748518 0
0.525 0.0748518 0
0.55 0.0748518 0
0.575 0.0748518 0
0.6 0.0748518 0
0.625 0.0748518 0
0.65 0.0748518 0
0.675 0.0748518 0
0.7 0.0748518 0
0.725 0.0748518 0
0.75 0.0748518 0
0.775 0.0748518 0
0.8 0.0748518 0
0.825 0.0748518 0
0.85 0.0748518 0
0.875 0.0748518 0
0.9 0.0748518 0
0.925 0.0748518 0
0.95 0.0748518 0
0.975 0.0748518 0
1 0.0748518 0
1.025 0.0748518 0
1.05 0.0748518 0
1.075 0.0748518 0
1.1 0.0748518 0
1.125 0.0748518 0
1.15 0.0748518 0
1.175 0.0748518 0
1.2 0.0748518 0
1.225 0.0748518 0
1.25 0.0748518 0
1.275 0.0748518 0
1.3 0.0748518 0
1.325 0.0748518 0
1.35 0.0748518 0
1.375 0.0748518 0
1.4 0.0748518 0
1.425 0.0748518 0
1.45 0.0748518 0
1.475 0.0748518 0
1.5 0.0748518 0
1.525 0.0748518 0
1.55 0.0748518 0
1.575 0.0748518 0
1.6 0.0748518 0
1.625 0.0748518 0
1.65 0.0748518 0
1.675 0.0748518 0
1.7 0.0748518 0
1.725 0.0748518 0
1.75 0.0748518 0
1.775 0.0748518 0
1.8 0.0748518 0
1.825 0.0748518 0
1.85 0.0748518 0
1.875 0.0748518 0
1.9 0.0748518 0
1.925 0.0748518 0
1.95 0.0748518 0
1.975 0.0748518 0
2 0.0748518 0
2.025 0.0748518 0
2.05 0.0748518 0
2.075 0.0748518 0
2.1 0.0748518 0
2.125 0.0748518 0
2.15 0.0748518 0
2.175 0.0748518 0
2.2 0.0748518 0
2.225 0.0748518 0
2.25 0.0748518 0
2.275 0.0748518 0
2.3 0.0748518 0
2.325 0.0748518 0
2.35 0.0748518 0
2.375 0.0748518 0
2.4 0.0748518 0
2.425 0.0748518 0
2.45 0.0748518 0
2.475 0.0748518 0
2.5 0.0748518 0
0.025 0.0998625 0
0.05 0.0998531 0
0.075 0.0998519 0
0.1 0.0998518 0
0.125 0.0998518 0
0.15 0.0998518 0
0.175 0.0998518 0
0.2 0.0998518 0
0.225 0.0998518 0
0.25 0.0998518 0
0.275 0.0998518 0
0.3 0.0998518 0
0.325 0.0998518 0
0.35 0.0998518 0
0.375 0.0998518 0
0.4 0.0998518 0
0.425 0.0998518 0
0.45 0.0998518 0
0.475 0.0998518 0
0.5 0.0998518 0
0.525 0.0998518 0
0.55 0.0998518 0
0.575 0.0998518 0
0.6 0.0998518 0
0.625 0.0998518 0
0.65 0.0998518 0
0.675 0.0998518 0
0.7 0.0998518 0
0.725 0.0998518 0
0.75 0.0998518 0
0.775 0.0998518 0
0.8 0.0998518 0
0.825 0.0998518 0
0.85 0.0998518 0
0.875 0.0998518 0
0.9 0.0998518 0
0.925 0.0998518 0
0.95 0.0998518 0
0.975 0.0998518 0
1 0.0998518 0
1.025 0.0998518 0
1.05 0.0998518 0
1.075 0.0998518 0
1.1 0.0998518 0
1.125 0.0998518 0
1.15 0.0998518 0
1.175 0.0998518 0
1.2 0.0998518 0
1.225 0.0998518 0
1.25 0.0998518 0
1.275 0.0998518 0
1.3 0.0998518 0
1.325 0.0998518 0
1.35 0.0998518 0
1.375 0.0998518 0
1.4 0.0998518 0
1.425 0.0998518 0
1.45 0.0998518 0
1.475 0.0998518 0
1.5 0.0998518 0
1.525 0.0998518 0
1.55 0.0998518 0
1.575 0.0998518 0
1.6 0.0998518 0
1.625 0.0998518 0
1.65 0.0998518 0
1.675 0.0998518 0
1.7 0.0998518 0
1.725 0.0998518 0
1.75 0.0998518 0
1.775 0.0998518 0
1.8 0.0998518 0
1.825 0.0998518 0
1.85 0.0998518 0
1.875 0.0998518 0
1.9 0.0998518 0
1.925 0.0998518 0
1.95 0.0998518 0
1.975 0.0998518 0
2 0.0998518 0
2.025 0.0998518 0
2.05 0.0998518 0
2.075 0.0998518 0
2.1 0.0998518 0
2.125 0.0998518 0
2.15 0.0998518 0
2.175 0.0998518 0
2.2 0.0998518 0
2.225 0.0998518 0
2.25 0.0998518 0
2.275 0.0998518 0
2.3 0.0998518 0
2.325 0.0998518 0
2.35 0.0998518 0
2.375 0.0998518 0
2.4 0.0998518 0
2.425 0.0998518 0
2.45 0.0998518 0
2.475 0.0998518 0
2.5 0.0998518 0
0.025 0.124862 0
0.05 0.124853 0
0.075 0.124852 0
0.1 0.124852 0
0.125 0.124852 0
0.15 0.124852 0
0.175 0.124852 0
0.2 0.124852 0
0.225 0.124852 0
0.25 0.124852 0
0.275 0.124852 0
0.3 0.124852 0
0.325 0.124852 0
0.35 0.124852 0
0.375 0.124852 0
0.4 0.124852 0
0.425 0.124852 0
0.45 0.124852 0
0.475 0.124852 0
0.5 0.124852 0
0.525 0.124852 0
0.55 0.124852 0
0.575 0.124852 0
0.6 0.124852 0
0.625 0.124852 0
0.65 0.124852 0
0.675 0.124852 0
0.7 0.124852 0
0.725 0.124852 0
0.75 0.124852 0
0.775 0.124852 0
0.8 0.124852 0
0.825 0.124852 0
0.85 0.124852 0
0.875 0.124852 0
0.9 0.124852 0
0.925 0.124852 0
0.95 0.124852 0
0.975 0.124852 0
1 0.124852 0
1.025 0.124852 0
1.05 0.124852 0
1.075 0.124852 0
1.1 0.124852 0
1.125 0.124852 0
1.15 0.124852 0
1.175 0.124852 0
1.2 0.124852 0
1.225 0.124852 0
1.25 0.124852 0
1.275 0.124852 0
1.3 0.124852 0
1.325 0.124852 0
1.35 0.124852 0
1.375 0.124852 0
1.4 0.124852 0
1.425 0.124852 0
1.45 0.124852 0
1.475 0.124852 0
1.5 0.124852 0
1.525 0.124852 0
1.55 0.124852 0
1.575 0.124852 0
1.6 0.124852 0
1.625 0.124852 0
1.65 0.124852 0
1.675 0.124852 0
1.7 0.124852 0
1.725 0.124852 0
1.75 0.124852 0
1.775 0.124852 0
1.8 0.124852 0
1.825 0.124852 0
1.85 0.124852 0
1.875 0.124852 0
1.9 0.124852 0
1.925 0.124852 0
1.95 0.124852 0
1.975 0.124852 0
2 0.124852 0
2.025 0.124852 0
2.05 0.124852 0
2.075 0.124852 0
2.1 0.124852 0
2.125 0.124852 0
2.15 0.124852 0
2.175 0.124852 0
2.2 0.124852 0
2.225 0.124852 0
2.25 0.124852 0
2.275 0.124852 0
2.3 0.124852 0
2.325 0.124852 0
2.35 0.124852 0
2.375 0.124852 0
2.4 0.124852 0
2.425 0.124852 0
2.45 0.124852 0
2.475 0.124852 0
2.5 0.124852 0
0.0249999 0.149862 0
0.0500001 0.149853 0
0.075 0.149852 0
0.1 0.149852 0
0.125 0.149852 0
0.15 0.149852 0
0.175 0.149852 0
0.2 0.149852 0
0.225 0.149852 0
0.25 0.149852 0
0.275 0.149852 0
0.3 0.149852 0
0.325 0.149852 0
0.35 0.149852 0
0.375 0.149852 0
0.4 0.149852 0
0.425 0.149852 0
0.45 0.149852 0
0.475 0.149852 0
0.5 0.149852 0
0.525 0.149852 0
0.55 0.149852 0
0.575 0.149852 0
0.6 0.149852 0
0.625 0.149852 0
0.65 0.149852 0
0.675 0.149852 0
0.7 0.149852 0
0.725 0.149852 0
0.75 0.149852 0
0.775 0.149852 0
0.8 0.149852 0
0.825 0.149852 0
0.85 0.149852 0
0.875 0.149852 0
0.9 0.149852 0
0.925 0.149852 0
0.95 0.149852 0
0.975 0.149852 0
1 0.149852 0
1.025 0.149852 0
1.05 0.149852 0
1.075 0.149852 0
1.1 0.149852 0
1.125 0.149852 0
1.15 0.149852 0
1.175 0.149852 0
1.2 0.149852 0
1.225 0.149852 0
1.25 0.149852 0
1.275 0.149852 0
1.3 0.149852 0
1.325 0.149852 0
1.35 0.149852 0
1.375 0.149852 0
1.4 0.149852 0
1.425 0.149852 0
1.45 0.149852 0
1.475 0.149852 0
1.5 0.149852 0
1.525 0.149852 0
1.55 0.149852 0
1.575 0.149852 0
1.6 0.149852 0
1.625 0.149852 0
1.65 0.149852 0
1.675 0.149852 0
1.7 0.149852 0
1.725 0.149852 0
1.75 0.149852 0
1.775 0.149852 0
1.8 0.149852 0
1.825 0.149852 0
1.85 0.149852 0
1.875 0.149852 0
1.9 0.149852 0
1.925 0.149852 0
1.95 0.149852 0
1.975 0.149852 0
2 0.149852 0
2.025 0.149852 0
2.05 0.149852 0
2.075 0.149852 0
2.1 0.149852 0
2.125 0.149852 0
2.15 0.149852 0
2.175 0.149852 0
2.2 0.149852 0
2.225 0.149852 0
2.25 0.149852 0
2.275 0.149852 0
2.3 0.149852 0
2.325 0.149852 0
2.35 0.149852 0
2.375 0.149852 0
2.4 0.149852 0
2.425 0.149852 0
2.45 0.149852 0
2.475 0.149852 0
2.5 0.149852 0
0.0249998 0.174861 0
0.0500002 0.174853 0
0.075 0.174852 0
0.1 0.174852 0
0.125 0.174852 0
0.15 0.174852 0
0.175 0.174852 0
0.2 0.174852 0
0.225 0.174852 0
0.25 0.174852 0
0.275 0.174852 0
0.3 0.174852 0
0.325 0.174852 0
0.35 0.174852 0
0.375 0.174852 0
0.4 0.174852 0
0.425 0.174852 0
0.45 0.174852 0
0.475 0.174852 0
0.5 0.174852 0
0.525 0.174852 0
0.55 0.174852 0
0.575 0.174852 0
0.6 0.174852 0
0.625 0.174852 0
0.65 0.174852 0
0.675 0.174852 0
0.7 0.174852 0
0.725 0.174852 0
0.75 0.174852 0
0.775 0.174852 0
0.8 0.174852 0
0.825 0.174852 0
0.85 0.174852 0
0.875 0.174852 0
0.9 0.174852 0
0.925 0.174852 0
0.95 0.174852 0
0.975 0.174852 0
1 0.174852 0
1.025 0.174852 0
1.05 0.174852 0
1.075 0.174852 0
1.1 0.174852 0
1.125 0.174852 0
1.15 0.174852 0
1.175 0.174852 0
1.2 0.174852 0
1.225 0.174852 0
1.25 0.174852 0
1.275 0.174852 0
1.3 0.174852 0
1.325 0.174852 0
1.35 0.174852 0
1.375 0.174852 0
1.4 0.174852 0
1.425 0.174852 0
1.45 0.174852 0
1.475 0.174852 0
1.5 0.174852 0
1.525 0.174852 0
1.55 0.174852 0
1.575 0.174852 0
1.6 0.174852 0
1.625 0.174852 0
1.65 0.174852 0
1.675 0.174852 0
1.7 0.174852 0
1.725 0.174852 0
1.75 0.174852 0
1.775 0.174852 0
1.8 0.174852 0
1.825 0.174852 0
1.85 0.174852 0
1.875 0.174852 0
1.9 0.174852 0
1.925 0.174852 0
1.95 0.174852 0
1.975 0.174852 0
2 0.174852 0
2.025 0.174852 0
2.05 0.174852 0
2.075 0.174852 0
2.1 0.174852 0
2.125 0.174852 0
2.15 0.174852 0
2.175 0.174852 0
2.2 0.174852 0
2.225 0.174852 0
2.25 0.174852 0
2.275 0.174852 0
2.3 0.174852 0
2.325 0.174852 0
2.35 0.174852 0
2.375 0.174852 0
2.4 0.174852 0
2.425 0.174852 0
2.45 0.174852 0
2.475 0.174852 0
2.5 0.174852 0
</DataArray>
</Points>
<PointData>
<DataArray NumberOfComponents='1' type='Int32' Name='Particle Type' format='ascii'>
0
0
0
0
0
0
0
0
0
0
0
0
0
0
0
0
0
0
0
0
0
0
1
1
1
1
1
1
1
1
1
1
1
1
1
1
1
1
1
1
1
1
1
1
1
1
1
1
1
1
1
1
1
1
1
1
1
1
1
1
1
1
1
1
1
1
1
1
1
1
1
1
1
1
1
1
1
1
1
1
1
1
1
1
1
1
1
1
1
1
1
1
1
1
1
1
1
1
1
1
1
1
1
1
1
1
1
1
1
1
1
1
1
1
1
1
1
1
1
1
1
1
1
1
1
1
1
1
1
1
1
1
1
1
1
1
1
1
1
1
1
1
1
1
1
1
1
1
1
1
1
1
1
1
1
1
1
1
1
1
1
1
1
1
1
1
1
1
1
1
1
1
1
1
1
1
1
1
1
1
1
1
1
1
1
1
1
1
1
1
1
1
1
1
1
1
1
1
1
1
1
1
1
1
1
1
1
1
1
1
1
1
1
1
1
1
1
1
1
1
1
1
1
1
1
1
1
1
1
1
1
1
1
1
1
1
1
1
1
1
1
1
1
1
1
1
1
1
1
1
1
1
1
1
1
1
1
1
1
1
1
1
1
1
1
1
1
1
1
1
1
1
1
1
1
1
1
1
1
1
1
1
1
1
1
1
1
1
1
1
1
1
1
1
1
1
1
1
1
1
1
1
1
1
1
1
1
1
1
1
1
1
1
1
1
1
1
1
1
1
1
1
1
1
1
1
1
1
1
1
1
1
1
1
1
1
1
1
1
1
1
1
1
1
1
1
1
1
1
1
1
1
1
1
1
1
1
1
1
1
1
1
1
1
1
1
1
1
1
1
1
1
1
1
1
1
1
1
1
1
1
1
1
1
1
1
1
1
1
1
1
1
1
1
1
1
1
1
1
1
1
1
1
1
1
1
1
1
1
1
1
1
1
1
1
1
1
1
1
1
1
1
1
1
1
1
1
1
1
1
1
1
1
1
1
1
1
1
1
1
1
1
1
1
1
1
1
1
1
1
1
1
1
1
1
1
1
1
1
1
1
1
1
1
1
1
1
1
1
1
1
1
1
1
1
1
1
1
1
1
1
1
1
1
1
1
1
1
1
1
1
1
1
1
1
1
1
1
1
1
1
1
1
1
1
1
1
1
1
1
1
1
1
1
1
1
1
1
1
1
1
1
1
1
1
1
1
1
1
1
1
1
1
1
1
1
1
1
1
1
1
1
1
1
1
1
1
1
1
1
1
1
1
1
1
1
1
1
1
1
1
1
1
1
1
1
1
1
1
1
1
1
1
1
1
1
1
1
1
1
1
1
1
1
1
1
1
1
1
1
1
1
1
1
1
1
1
1
1
1
1
1
1
1
1
1
1
1
1
1
1
1
1
1
1
1
1
1
1
1
1
1
1
1
1
1
1
1
1
1
1
1
1
1
1
1
1
1
1
1
1
1
1
1
1
1
1
1
1
1
1
1
1
1
1
1
1
1
1
1
1
1
1
1
1
1
1
1
1
1
1
1
1
1
1
1
1
1
1
1
1
1
1
1
1
1
1
1
1
1
1
1
1
1
1
1
1
1
1
1
1
1
1
1
1
1
1
1
1
1
1
1
1
1
1
1
1
1
1
1
1
1
1
1
1
1
1
1
1
1
1
1
1
1
1
1
1
1
1
1
1
1
1
1
1
1
1
1
1
1
1
1
1
1
1
1
1
1
1
1
1
1
1
1
1
1
1
1
1
1
1
1
1
1
1
1
1
1
1
1
1
1
1
1
1
1
1
1
1
1
1
1
1
1
1
1
1
1
1
1
1
1
1
1
1
1
1
1
</DataArray>
<DataArray NumberOfComponents='3' type='Float64' Name='Velocity' format='ascii'>
0 0 0
0 0 0
0 0 0
0 0 0
0 0 0
0 0 0
0 0 0
0 0 0
0 0 0
0 0 0
0 0 0
0 0 0
0 0 0
0 0 0
0 0 0
0 0 0
0 0 0
0 0 0
0 0 0
0 0 0
0 0 0
0 0 0
0.000120198 -0.00706624 0
1.17768e-05 -0.00773819 0
1.48192e-06 -0.00779672 0
1.59461e-07 -0.00779988 0
1.8898e-08 -0.0078 0
1.87059e-09 -0.0078 0
1.46686e-10 -0.0078 0
1.14969e-11 -0.0078 0
8.45671e-13 -0.0078 0
5.31777e-14 -0.0078 0
2.82619e-15 -0.0078 0
1.17763e-16 -0.0078 0
2.56432e-18 -0.0078 0
1.95195e-20 -0.0078 0
-7.84633e-33 -0.0078 0
-1.54408e-34 -0.0078 0
8.31083e-33 -0.0078 0
6.57821e-32 -0.0078 0
-6.61276e-32 -0.0078 0
-7.63448e-33 -0.0078 0
1.7833e-34 -0.0078 0
7.85464e-33 -0.0078 0
6.59201e-32 -0.0078 0
-6.53928e-32 -0.0078 0
-3.56694e-34 -0.0078 0
5.78844e-32 -0.0078 0
-1.2482e-31 -0.0078 0
1.17531e-31 -0.0078 0
-1.16795e-31 -0.0078 0
1.3153e-31 -0.0078 0
1.47578e-34 -0.0078 0
-1.31321e-31 -0.0078 0
1.17376e-31 -0.0078 0
-1.16986e-31 -0.0078 0
1.31393e-31 -0.0078 0
5.67612e-34 -0.0078 0
-1.31341e-31 -0.0078 0
1.17254e-31 -0.0078 0
-1.17232e-31 -0.0078 0
1.31355e-31 -0.0078 0
6.28505e-34 -0.0078 0
-1.31464e-31 -0.0078 0
1.17239e-31 -0.0078 0
-1.16795e-31 -0.0078 0
1.3153e-31 -0.0078 0
1.47578e-34 -0.0078 0
-1.31314e-31 -0.0078 0
1.17533e-31 -0.0078 0
-1.17168e-31 -0.0078 0
1.31203e-31 -0.0078 0
5.93709e-34 -0.0078 0
-1.31464e-31 -0.0078 0
1.17239e-31 -0.0078 0
-1.16795e-31 -0.0078 0
1.3153e-31 -0.0078 0
1.47578e-34 -0.0078 0
-1.31321e-31 -0.0078 0
1.17376e-31 -0.0078 0
-1.16986e-31 -0.0078 0
1.31393e-31 -0.0078 0
5.67612e-34 -0.0078 0
-1.31341e-31 -0.0078 0
1.17254e-31 -0.0078 0
-1.17192e-31 -0.0078 0
1.31541e-31 -0.0078 0
1.56017e-32 -0.0078 0
-2.90928e-32 -0.0078 0
-2.63048e-31 -0.0078 0
2.63162e-31 -0.0078 0
2.83969e-32 -0.0078 0
6.66019e-35 -0.0078 0
-2.83838e-32 -0.0078 0
-2.63218e-31 -0.0078 0
2.6217e-31 -0.0078 0
2.86046e-32 -0.0078 0
6.86136e-34 -0.0078 0
-2.87604e-32 -0.0078 0
-2.63234e-31 -0.0078 0
2.63332e-31 -0.0078 0
2.83501e-32 -0.0078 0
-1.07379e-34 -0.0078 0
-2.8523e-32 -0.0078 0
-1.07555e-21 -0.0078 0
-9.17649e-21 -0.0078 0
-1.75843e-19 -0.0078 0
-3.55724e-18 -0.0078 0
-8.41635e-05 -0.00565686 0
-3.16753e-05 -0.0064045 0
-5.88776e-06 -0.00649624 0
-5.83034e-07 -0.00650192 0
-6.10085e-08 -0.00650227 0
-5.11819e-09 -0.00650229 0
-3.58887e-10 -0.00650229 0
1.53071e-10 -0.00650229 0
2.44933e-09 -0.00650229 0
2.55584e-08 -0.00650229 0
2.3737e-07 -0.00650233 0
3.26646e-06 -0.00650319 0
2.14953e-05 -0.00653267 0
9.37486e-05 -0.00675664 0
9.73175e-05 -0.00752052 0
2.44989e-05 -0.00776201 0
4.16597e-06 -0.00779793 0
3.88388e-07 -0.00779988 0
3.89779e-08 -0.0078 0
3.49169e-09 -0.0078 0
2.62578e-10 -0.0078 0
1.92203e-11 -0.0078 0
1.34203e-12 -0.0078 0
8.34623e-14 -0.0078 0
4.39972e-15 -0.0078 0
1.81825e-16 -0.0078 0
3.96304e-18 -0.0078 0
3.17164e-20 -0.0078 0
3.62967e-32 -0.0078 0
-8.69903e-36 -0.0078 0
-3.53811e-32 -0.0078 0
-2.80686e-31 -0.0078 0
2.79331e-31 -0.0078 0
3.87803e-32 -0.0078 0
-7.6334e-34 -0.0078 0
-3.56617e-32 -0.0078 0
-2.81202e-31 -0.0078 0
2.76611e-31 -0.0078 0
3.23169e-33 -0.0078 0
-2.4109e-31 -0.0078 0
5.29451e-31 -0.0078 0
-4.91514e-31 -0.0078 0
4.88929e-31 -0.0078 0
-5.60966e-31 -0.0078 0
-1.44621e-33 -0.0078 0
5.62168e-31 -0.0078 0
-4.89619e-31 -0.0078 0
4.87952e-31 -0.0078 0
-5.61866e-31 -0.0078 0
2.31394e-33 -0.0078 0
5.59505e-31 -0.0078 0
-4.87365e-31 -0.0078 0
4.8635e-31 -0.0078 0
-5.60277e-31 -0.0078 0
1.51363e-33 -0.0078 0
5.58828e-31 -0.0078 0
-4.86714e-31 -0.0078 0
4.88929e-31 -0.0078 0
-5.60966e-31 -0.0078 0
-1.44621e-33 -0.0078 0
5.62168e-31 -0.0078 0
-4.89853e-31 -0.0078 0
4.87763e-31 -0.0078 0
-5.60886e-31 -0.0078 0
1.37445e-33 -0.0078 0
5.58828e-31 -0.0078 0
-4.86714e-31 -0.0078 0
4.88929e-31 -0.0078 0
-5.60966e-31 -0.0078 0
-1.44621e-33 -0.0078 0
5.62168e-31 -0.0078 0
-4.89619e-31 -0.0078 0
4.87952e-31 -0.0078 0
-5.61866e-31 -0.0078 0
2.31394e-33 -0.0078 0
5.59505e-31 -0.0078 0
-4.87365e-31 -0.0078 0
4.86352e-31 -0.0078 0
-5.67638e-31 -0.0078 0
-5.66372e-32 -0.0078 0
1.3915e-31 -0.0078 0
1.13167e-30 -0.0078 0
-1.13084e-30 -0.0078 0
-1.49765e-31 -0.0078 0
-8.05747e-34 -0.0078 0
1.4702e-31 -0.0078 0
1.13326e-30 -0.0078 0
-1.13273e-30 -0.0078 0
-1.49712e-31 -0.0078 0
1.47883e-33 -0.0078 0
1.48974e-31 -0.0078 0
1.13262e-30 -0.0078 0
-1.13054e-30 -0.0078 0
-1.49104e-31 -0.0078 0
-1.07324e-33 -0.0078 0
1.47629e-31 -0.0078 0
4.98106e-21 -0.0078 0
3.60742e-19 -0.0078 0
2.94609e-18 -0.0078 0
2.01633e-17 -0.0078 0
-3.00374e-05 -0.00642602 0
-1.3078e-05 -0.00737943 0
-2.78538e-06 -0.00750567 0
-3.55494e-07 -0.00751338 0
-4.37344e-08 -0.00751385 0
-4.01382e-09 -0.00751386 0
-2.99891e-10 -0.00751386 0
1.51071e-10 -0.00751386 0
2.30773e-09 -0.00751386 0
2.50879e-08 -0.00751387 0
2.1002e-07 -0.00751394 0
2.07529e-06 -0.00751511 0
1.12245e-05 -0.00752818 0
3.12967e-05 -0.0075917 0
3.18072e-05 -0.00771783 0
1.19756e-05 -0.00778375 0
2.38839e-06 -0.00779833 0
2.72901e-07 -0.00779987 0
3.12536e-08 -0.00779999 0
2.87577e-09 -0.0078 0
2.23729e-10 -0.0078 0
1.70516e-11 -0.0078 0
1.21813e-12 -0.0078 0
7.62141e-14 -0.0078 0
4.05752e-15 -0.0078 0
1.67993e-16 -0.0078 0
3.5845e-18 -0.0078 0
2.68676e-20 -0.0078 0
9.69782e-32 -0.0078 0
-1.18307e-33 -0.0078 0
-9.87166e-32 -0.0078 0
-7.11293e-31 -0.0078 0
7.13599e-31 -0.0078 0
9.49151e-32 -0.0078 0
1.20916e-33 -0.0078 0
-9.35618e-32 -0.0078 0
-7.15173e-31 -0.0078 0
7.08018e-31 -0.0078 0
6.59233e-33 -0.0078 0
-6.25112e-31 -0.0078 0
1.35874e-30 -0.0078 0
-1.26547e-30 -0.0078 0
1.26019e-30 -0.0078 0
-1.44287e-30 -0.0078 0
-8.28209e-34 -0.0078 0
1.44288e-30 -0.0078 0
-1.25889e-30 -0.0078 0
1.25887e-30 -0.0078 0
-1.44407e-30 -0.0078 0
2.35744e-33 -0.0078 0
1.44224e-30 -0.0078 0
-1.25965e-30 -0.0078 0
1.26027e-30 -0.0078 0
-1.44209e-30 -0.0078 0
1.63542e-33 -0.0078 0
1.44127e-30 -0.0078 0
-1.26088e-30 -0.0078 0
1.26019e-30 -0.0078 0
-1.44287e-30 -0.0078 0
-8.28209e-34 -0.0078 0
1.44289e-30 -0.0078 0
-1.25889e-30 -0.0078 0
1.25827e-30 -0.0078 0
-1.44177e-30 -0.0078 0
1.63542e-33 -0.0078 0
1.44127e-30 -0.0078 0
-1.26088e-30 -0.0078 0
1.26019e-30 -0.0078 0
-1.44287e-30 -0.0078 0
-8.28209e-34 -0.0078 0
1.44288e-30 -0.0078 0
-1.25889e-30 -0.0078 0
1.25887e-30 -0.0078 0
-1.44407e-30 -0.0078 0
2.35744e-33 -0.0078 0
1.44224e-30 -0.0078 0
-1.25965e-30 -0.0078 0
1.25989e-30 -0.0078 0
-1.45719e-30 -0.0078 0
-1.49997e-31 -0.0078 0
3.50919e-31 -0.0078 0
2.88874e-30 -0.0078 0
-2.88861e-30 -0.0078 0
-3.63337e-31 -0.0078 0
-3.09713e-33 -0.0078 0
3.64846e-31 -0.0078 0
2.88814e-30 -0.0078 0
-2.89024e-30 -0.0078 0
-3.63197e-31 -0.0078 0
8.00311e-34 -0.0078 0
3.6308e-31 -0.0078 0
2.88898e-30 -0.0078 0
-2.88948e-30 -0.0078 0
-3.64546e-31 -0.0078 0
-1.62264e-33 -0.0078 0
3.65124e-31 -0.0078 0
1.15646e-20 -0.0078 0
7.36651e-19 -0.0078 0
6.30479e-18 -0.0078 0
4.98809e-17 -0.0078 0
-5.28543e-06 -0.00659104 0
-2.63891e-06 -0.00760377 0
-6.80596e-07 -0.00774377 0
-1.21002e-07 -0.00775295 0
-1.73528e-08 -0.00775352 0
-1.76888e-09 -0.00775354 0
-1.41241e-10 -0.00775355 0
8.87422e-11 -0.00775355 0
1.23292e-09 -0.00775355 0
1.26615e-08 -0.00775355 0
9.23995e-08 -0.0077536 0
5.74785e-07 -0.0077541 0
2.33371e-06 -0.00775725 0
5.18537e-06 -0.00776763 0
5.23914e-06 -0.00778539 0
2.41564e-06 -0.00779603 0
6.16818e-07 -0.00779937 0
1.0277e-07 -0.00779993 0
1.4118e-08 -0.00779999 0
1.42258e-09 -0.0078 0
1.20138e-10 -0.0078 0
1.00215e-11 -0.0078 0
7.48135e-13 -0.0078 0
4.78803e-14 -0.0078 0
2.62038e-15 -0.0078 0
1.09822e-16 -0.0078 0
2.25935e-18 -0.0078 0
1.64833e-20 -0.0078 0
6.82732e-32 -0.0078 0
1.7833e-34 -0.0078 0
-6.59604e-32 -0.0078 0
-5.07062e-31 -0.0078 0
5.0474e-31 -0.0078 0
6.75306e-32 -0.0078 0
-4.65398e-34 -0.0078 0
-6.66661e-32 -0.0078 0
-5.04626e-31 -0.0078 0
5.0096e-31 -0.0078 0
4.29841e-33 -0.0078 0
-4.30859e-31 -0.0078 0
9.57885e-31 -0.0078 0
-8.91351e-31 -0.0078 0
8.85879e-31 -0.0078 0
-1.0235e-30 -0.0078 0
-1.32986e-33 -0.0078 0
1.02283e-30 -0.0078 0
-8.87497e-31 -0.0078 0
8.88011e-31 -0.0078 0
-1.02197e-30 -0.0078 0
8.00311e-34 -0.0078 0
1.02167e-30 -0.0078 0
-8.848e-31 -0.0078 0
8.86992e-31 -0.0078 0
-1.0214e-30 -0.0078 0
9.39495e-34 -0.0078 0
1.02095e-30 -0.0078 0
-8.85732e-31 -0.0078 0
8.85879e-31 -0.0078 0
-1.0235e-30 -0.0078 0
-1.32986e-33 -0.0078 0
1.02283e-30 -0.0078 0
-8.87497e-31 -0.0078 0
8.88332e-31 -0.0078 0
-1.02096e-30 -0.0078 0
9.39495e-34 -0.0078 0
1.02095e-30 -0.0078 0
-8.85732e-31 -0.0078 0
8.85879e-31 -0.0078 0
-1.0235e-30 -0.0078 0
-1.32986e-33 -0.0078 0
1.02283e-30 -0.0078 0
-8.87497e-31 -0.0078 0
8.88011e-31 -0.0078 0
-1.02197e-30 -0.0078 0
8.00311e-34 -0.0078 0
1.02167e-30 -0.0078 0
-8.848e-31 -0.0078 0
8.86748e-31 -0.0078 0
-1.03239e-30 -0.0078 0
-1.09168e-31 -0.0078 0
2.5212e-31 -0.0078 0
2.04191e-30 -0.0078 0
-2.03796e-30 -0.0078 0
-2.6599e-31 -0.0078 0
-1.77786e-33 -0.0078 0
2.65012e-31 -0.0078 0
2.03933e-30 -0.0078 0
-2.03928e-30 -0.0078 0
-2.64163e-31 -0.0078 0
3.13165e-34 -0.0078 0
2.65265e-31 -0.0078 0
2.03951e-30 -0.0078 0
-2.03512e-30 -0.0078 0
-2.67182e-31 -0.0078 0
-6.90485e-34 -0.0078 0
2.6529e-31 -0.0078 0
8.41943e-21 -0.0078 0
5.96488e-19 -0.0078 0
4.98248e-18 -0.0078 0
3.62e-17 -0.0078 0
-7.81982e-07 -0.00661845 0
-4.07621e-07 -0.0076414 0
-8.07097e-08 -0.00778444 0
-1.32545e-08 -0.00779409 0
-1.49523e-09 -0.00779471 0
-1.62382e-10 -0.00779473 0
-1.19242e-11 -0.00779473 0
3.99341e-11 -0.00779473 0
4.35737e-10 -0.00779473 0
3.8609e-09 -0.00779474 0
2.44257e-08 -0.00779475 0
1.05127e-07 -0.00779486 0
2.9797e-07 -0.00779529 0
5.84251e-07 -0.00779643 0
5.87621e-07 -0.00779826 0
3.03148e-07 -0.00779942 0
1.07774e-07 -0.00779986 0
2.54403e-08 -0.00779998 0
4.1194e-09 -0.0078 0
4.80103e-10 -0.0078 0
4.63576e-11 -0.0078 0
4.30051e-12 -0.0078 0
3.38012e-13 -0.0078 0
2.22244e-14 -0.0078 0
1.25936e-15 -0.0078 0
5.16759e-17 -0.0078 0
8.83921e-19 -0.0078 0
4.03793e-21 -0.0078 0
3.60149e-32 -0.0078 0
1.63895e-33 -0.0078 0
-3.64478e-32 -0.0078 0
-2.47935e-31 -0.0078 0
2.46275e-31 -0.0078 0
3.68983e-32 -0.0078 0
1.204e-33 -0.0078 0
-3.5941e-32 -0.0078 0
-2.46572e-31 -0.0078 0
2.42669e-31 -0.0078 0
4.92593e-33 -0.0078 0
-2.10866e-31 -0.0078 0
4.75511e-31 -0.0078 0
-4.38317e-31 -0.0078 0
4.3441e-31 -0.0078 0
-5.0605e-31 -0.0078 0
-1.05669e-33 -0.0078 0
5.07093e-31 -0.0078 0
-4.36067e-31 -0.0078 0
4.35504e-31 -0.0078 0
-5.05389e-31 -0.0078 0
-1.45043e-33 -0.0078 0
5.06668e-31 -0.0078 0
-4.35145e-31 -0.0078 0
4.3615e-31 -0.0078 0
-5.05313e-31 -0.0078 0
-1.13726e-33 -0.0078 0
5.06206e-31 -0.0078 0
-4.34537e-31 -0.0078 0
4.3441e-31 -0.0078 0
-5.0605e-31 -0.0078 0
-1.05669e-33 -0.0078 0
5.07093e-31 -0.0078 0
-4.36137e-31 -0.0078 0
4.35354e-31 -0.0078 0
-5.04728e-31 -0.0078 0
-1.13726e-33 -0.0078 0
5.06206e-31 -0.0078 0
-4.34537e-31 -0.0078 0
4.3441e-31 -0.0078 0
-5.0605e-31 -0.0078 0
-1.05669e-33 -0.0078 0
5.07093e-31 -0.0078 0
-4.36067e-31 -0.0078 0
4.35504e-31 -0.0078 0
-5.05389e-31 -0.0078 0
-1.45043e-33 -0.0078 0
5.06668e-31 -0.0078 0
-4.35145e-31 -0.0078 0
4.36009e-31 -0.0078 0
-5.13566e-31 -0.0078 0
-5.08542e-32 -0.0078 0
1.30555e-31 -0.0078 0
1.0049e-30 -0.0078 0
-1.00494e-30 -0.0078 0
-1.41609e-31 -0.0078 0
-3.19315e-34 -0.0078 0
1.4236e-31 -0.0078 0
1.00673e-30 -0.0078 0
-1.00673e-30 -0.0078 0
-1.41122e-31 -0.0078 0
-1.53728e-33 -0.0078 0
1.41971e-31 -0.0078 0
1.00639e-30 -0.0078 0
-1.00716e-30 -0.0078 0
-1.42094e-31 -0.0078 0
1.50432e-34 -0.0078 0
1.4236e-31 -0.0078 0
4.5763e-21 -0.0078 0
4.04252e-19 -0.0078 0
3.2138e-18 -0.0078 0
1.91372e-17 -0.0078 0
-1.48548e-06 -0.00662573 0
8.3341e-07 -0.00764782 0
3.33255e-07 -0.00778938 0
6.99163e-08 -0.00779876 0
1.19362e-08 -0.00779935 0
1.25014e-09 -0.00779937 0
1.0547e-10 -0.00779937 0
2.12296e-11 -0.00779937 0
1.09524e-10 -0.00779937 0
7.78079e-10 -0.00779937 0
4.08252e-09 -0.00779938 0
1.50209e-08 -0.0077994 0
3.7819e-08 -0.00779946 0
6.3795e-08 -0.00779959 0
6.3995e-08 -0.00779978 0
3.82027e-08 -0.00779991 0
1.52973e-08 -0.00779998 0
4.20401e-09 -0.0078 0
8.13224e-10 -0.0078 0
1.1578e-10 -0.0078 0
1.34679e-11 -0.0078 0
1.39134e-12 -0.0078 0
1.16562e-13 -0.0078 0
7.92191e-15 -0.0078 0
4.58626e-16 -0.0078 0
1.71959e-17 -0.0078 0
2.03673e-19 -0.0078 0
5.43478e-31 -0.0078 0
7.24246e-32 -0.0078 0
2.09973e-33 -0.0078 0
-7.31643e-32 -0.0078 0
-5.49473e-31 -0.0078 0
5.44333e-31 -0.0078 0
7.19007e-32 -0.0078 0
2.46509e-33 -0.0078 0
-7.2299e-32 -0.0078 0
-5.50791e-31 -0.0078 0
5.39209e-31 -0.0078 0
6.92742e-33 -0.0078 0
-4.73942e-31 -0.0078 0
1.03904e-30 -0.0078 0
-9.73528e-31 -0.0078 0
9.62116e-31 -0.0078 0
-1.10366e-30 -0.0078 0
3.32058e-33 -0.0078 0
1.1049e-30 -0.0078 0
-9.66004e-31 -0.0078 0
9.62653e-31 -0.0078 0
-1.10186e-30 -0.0078 0
1.76155e-33 -0.0078 0
1.09898e-30 -0.0078 0
-9.63498e-31 -0.0078 0
9.68049e-31 -0.0078 0
-1.10534e-30 -0.0078 0
8.39456e-34 -0.0078 0
1.10685e-30 -0.0078 0
-9.6601e-31 -0.0078 0
9.62116e-31 -0.0078 0
-1.10366e-30 -0.0078 0
3.32058e-33 -0.0078 0
1.10476e-30 -0.0078 0
-9.66282e-31 -0.0078 0
9.62863e-31 -0.0078 0
-1.10104e-30 -0.0078 0
8.39456e-34 -0.0078 0
1.10685e-30 -0.0078 0
-9.6601e-31 -0.0078 0
9.62116e-31 -0.0078 0
-1.10366e-30 -0.0078 0
3.32058e-33 -0.0078 0
1.1049e-30 -0.0078 0
-9.66004e-31 -0.0078 0
9.62653e-31 -0.0078 0
-1.10186e-30 -0.0078 0
1.76155e-33 -0.0078 0
1.09898e-30 -0.0078 0
-9.63498e-31 -0.0078 0
9.67736e-31 -0.0078 0
-1.11447e-30 -0.0078 0
-1.14213e-31 -0.0078 0
2.63912e-31 -0.0078 0
2.20237e-30 -0.0078 0
-2.20406e-30 -0.0078 0
-2.76158e-31 -0.0078 0
-7.84e-34 -0.0078 0
2.79657e-31 -0.0078 0
2.21191e-30 -0.0078 0
-2.21102e-30 -0.0078 0
-2.76297e-31 -0.0078 0
-4.40497e-33 -0.0078 0
2.7895e-31 -0.0078 0
2.21107e-30 -0.0078 0
-2.20517e-30 -0.0078 0
-2.80107e-31 -0.0078 0
-8.47068e-34 -0.0078 0
2.79657e-31 -0.0078 0
8.88614e-21 -0.0078 0
5.88561e-19 -0.0078 0
4.99593e-18 -0.0078 0
3.84646e-17 -0.0078 0
-1.04568e-05 -0.00666255 0
7.25838e-06 -0.00766016 0
1.90843e-06 -0.00779126 0
2.43193e-07 -0.00779941 0
3.24206e-08 -0.00779992 0
3.05048e-09 -0.00779994 0
2.38176e-10 -0.00779994 0
2.07956e-11 -0.00779994 0
2.15211e-11 -0.00779994 0
1.1348e-10 -0.00779994 0
4.85015e-10 -0.00779994 0
1.55173e-09 -0.00779994 0
3.62147e-09 -0.00779995 0
5.82249e-09 -0.00779996 0
5.8372e-09 -0.00779998 0
3.65011e-09 -0.00779999 0
1.57293e-09 -0.0078 0
4.94661e-10 -0.0078 0
1.16459e-10 -0.0078 0
2.09627e-11 -0.0078 0
2.99122e-12 -0.0078 0
3.44496e-13 -0.0078 0
3.07144e-14 -0.0078 0
2.23581e-15 -0.0078 0
1.29735e-16 -0.0078 0