<?xml version='1.0' encoding='UTF-8'?>
<VTKFile byte_order='LittleEndian' version='0.1' type = 'UnstructuredGrid'>
<UnstructuredGrid>
<FieldData>
<DataArray type='Float64' Name='Time' NumberOfComponents='1' NumberOfTuples='1' format='ascii'>
0.76
</DataArray>
</FieldData>
<Piece NumberOfCells='808' NumberOfPoints='808'>
<Points>
<DataArray NumberOfComponents='3' type='Float64' Name='position' format='ascii'>
0 0 0
0 0.025 0
0 0.05 0
0 0.075 0
0 0.1 0
0 0.125 0
0 0.15 0
0 0.175 0
0.025 0 0
0.05 0 0
0.075 0 0
0.1 0 0
0.125 0 0
0.15 0 0
0.175 0 0
0.2 0 0
0.225 0 0
0.25 0 0
0.275 0 0
0.3 0 0
0.325 0 0
0.35 0 0
0.376579 -0.0113368 0
0.401653 -0.0177067 0
0.426729 -0.0228738 0
0.45174 -0.0273711 0
0.476785 -0.0314299 0
0.501827 -0.0351862 0
0.526836 -0.0386427 0
0.551848 -0.0417708 0
0.576801 -0.0446116 0
0.601688 -0.0471106 0
0.626565 -0.0492586 0
0.651436 -0.0511279 0
0.676284 -0.0527271 0
0.701123 -0.0540221 0
0.725979 -0.0550368 0
0.750855 -0.0558396 0
0.775737 -0.0564753 0
0.800615 -0.0569509 0
0.825488 -0.0572685 0
0.850364 -0.0574499 0
0.875256 -0.0575341 0
0.900168 -0.0575613 0
0.925104 -0.0575621 0
0.95006 -0.0575542 0
0.975033 -0.0575459 0
1.00002 -0.0575399 0
1.02501 -0.0575362 0
1.05 -0.0575341 0
1.075 -0.0575331 0
1.1 -0.0575326 0
1.125 -0.0575324 0
1.15 -0.0575323 0
1.175 -0.0575322 0
1.2 -0.0575322 0
1.225 -0.0575322 0
1.25 -0.0575322 0
1.275 -0.0575322 0
1.3 -0.0575322 0
1.325 -0.0575322 0
1.35 -0.0575322 0
1.375 -0.0575322 0
1.4 -0.0575322 0
1.425 -0.0575322 0
1.45 -0.0575322 0
1.475 -0.0575322 0
1.5 -0.0575322 0
1.525 -0.0575322 0
1.55 -0.0575322 0
1.575 -0.0575322 0
1.6 -0.0575322 0
1.625 -0.0575322 0
1.65 -0.0575322 0
1.675 -0.0575322 0
1.7 -0.0575322 0
1.725 -0.0575322 0
1.75 -0.0575322 0
1.775 -0.0575322 0
1.8 -0.0575322 0
1.825 -0.0575322 0
1.85 -0.0575322 0
1.875 -0.0575322 0
1.9 -0.0575322 0
1.925 -0.0575322 0
1.95 -0.0575322 0
1.975 -0.0575322 0
2 -0.0575322 0
2.025 -0.0575322 0
2.05 -0.0575322 0
2.075 -0.0575322 0
2.1 -0.0575322 0
2.125 -0.0575322 0
2.15 -0.0575322 0
2.175 -0.0575322 0
2.2 -0.0575322 0
2.225 -0.0575322 0
2.25 -0.0575322 0
2.275 -0.0575322 0
2.3 -0.0575322 0
2.325 -0.0575322 0
2.35 -0.0575322 0
2.375 -0.0575322 0
2.4 -0.0575322 0
2.425 -0.0575322 0
2.45 -0.0575322 0
2.475 -0.0575322 0
2.5 -0.0575322 0
0.024939 0.0246057 0
0.0499331 0.024397 0
0.0749422 0.0242304 0
0.0999462 0.0241198 0
0.124953 0.0239839 0
0.149942 0.0238725 0
0.174911 0.0237164 0
0.199903 0.0234669 0
0.224906 0.023194 0
0.249905 0.0228091 0
0.274943 0.0222272 0
0.300075 0.0214139 0
0.325381 0.0200461 0
0.351139 0.0171852 0
0.376753 0.0117196 0
0.401776 0.00646995 0
0.426788 0.00174054 0
0.451778 -0.00257591 0
0.47679 -0.00655472 0
0.50181 -0.0102605 0
0.526819 -0.013691 0
0.551817 -0.0168087 0
0.576773 -0.0196179 0
0.601681 -0.0220934 0
0.626567 -0.0242314 0
0.651438 -0.0260772 0
0.676291 -0.027649 0
0.701137 -0.0289365 0
0.725993 -0.0299606 0
0.750863 -0.0307726 0
0.77574 -0.0314105 0
0.800616 -0.0318864 0
0.82549 -0.0322083 0
0.850369 -0.0323992 0
0.875262 -0.0324956 0
0.900175 -0.0325346 0
0.92511 -0.032545 0
0.950065 -0.032544 0
0.975036 -0.0325402 0
1.00002 -0.0325369 0
1.02501 -0.0325347 0
1.05 -0.0325334 0
1.075 -0.0325327 0
1.1 -0.0325324 0
1.125 -0.0325323 0
1.15 -0.0325322 0
1.175 -0.0325322 0
1.2 -0.0325322 0
1.225 -0.0325322 0
1.25 -0.0325322 0
1.275 -0.0325322 0
1.3 -0.0325322 0
1.325 -0.0325322 0
1.35 -0.0325322 0
1.375 -0.0325322 0
1.4 -0.0325322 0
1.425 -0.0325322 0
1.45 -0.0325322 0
1.475 -0.0325322 0
1.5 -0.0325322 0
1.525 -0.0325322 0
1.55 -0.0325322 0
1.575 -0.0325322 0
1.6 -0.0325322 0
1.625 -0.0325322 0
1.65 -0.0325322 0
1.675 -0.0325322 0
1.7 -0.0325322 0
1.725 -0.0325322 0
1.75 -0.0325322 0
1.775 -0.0325322 0
1.8 -0.0325322 0
1.825 -0.0325322 0
1.85 -0.0325322 0
1.875 -0.0325322 0
1.9 -0.0325322 0
1.925 -0.0325322 0
1.95 -0.0325322 0
1.975 -0.0325322 0
2 -0.0325322 0
2.025 -0.0325322 0
2.05 -0.0325322 0
2.075 -0.0325322 0
2.1 -0.0325322 0
2.125 -0.0325322 0
2.15 -0.0325322 0
2.175 -0.0325322 0
2.2 -0.0325322 0
2.225 -0.0325322 0
2.25 -0.0325322 0
2.275 -0.0325322 0
2.3 -0.0325322 0
2.325 -0.0325322 0
2.35 -0.0325322 0
2.375 -0.0325322 0
2.4 -0.0325322 0
2.425 -0.0325322 0
2.45 -0.0325322 0
2.475 -0.0325322 0
2.5 -0.0325322 0
0.0249276 0.0494131 0
0.0499122 0.0490705 0
0.074917 0.048764 0
0.0999194 0.0485483 0
0.124932 0.0482814 0
0.149931 0.0480609 0
0.174912 0.047782 0
0.199919 0.0473633 0
0.224942 0.0469114 0
0.249983 0.0462806 0
0.275087 0.0453406 0
0.300307 0.0440799 0
0.325695 0.0422053 0
0.351263 0.0392287 0
0.376694 0.0350165 0
0.401802 0.0305582 0
0.426804 0.0262572 0
0.451786 0.022177 0
0.476783 0.0183033 0
0.501796 0.0146501 0
0.526808 0.0112476 0
0.5518 0.00814625 0
0.576757 0.00536106 0
0.601676 0.00290643 0
0.626569 0.00078626 0
0.651442 -0.00103253 0
0.676301 -0.00257698 0
0.701153 -0.00385352 0
0.726009 -0.00488222 0
0.750874 -0.00570227 0
0.775746 -0.00634524 0
0.80062 -0.00682511 0
0.825494 -0.00715357 0
0.850374 -0.0073544 0
0.875268 -0.00746212 0
0.90018 -0.00751177 0
0.925114 -0.00753056 0
0.950068 -0.00753554 0
0.975038 -0.00753557 0
1.00002 -0.00753446 0
1.02501 -0.00753347 0
1.05 -0.00753284 0
1.075 -0.0075325 0
1.1 -0.00753233 0
1.125 -0.00753225 0
1.15 -0.00753222 0
1.175 -0.00753221 0
1.2 -0.0075322 0
1.225 -0.0075322 0
1.25 -0.0075322 0
1.275 -0.0075322 0
1.3 -0.0075322 0
1.325 -0.0075322 0
1.35 -0.0075322 0
1.375 -0.0075322 0
1.4 -0.0075322 0
1.425 -0.0075322 0
1.45 -0.0075322 0
1.475 -0.0075322 0
1.5 -0.0075322 0
1.525 -0.0075322 0
1.55 -0.0075322 0
1.575 -0.0075322 0
1.6 -0.0075322 0
1.625 -0.0075322 0
1.65 -0.0075322 0
1.675 -0.0075322 0
1.7 -0.0075322 0
1.725 -0.0075322 0
1.75 -0.0075322 0
1.775 -0.0075322 0
1.8 -0.0075322 0
1.825 -0.0075322 0
1.85 -0.0075322 0
1.875 -0.0075322 0
1.9 -0.0075322 0
1.925 -0.0075322 0
1.95 -0.0075322 0
1.975 -0.0075322 0
2 -0.0075322 0
2.025 -0.0075322 0
2.05 -0.0075322 0
2.075 -0.0075322 0
2.1 -0.0075322 0
2.125 -0.0075322 0
2.15 -0.0075322 0
2.175 -0.0075322 0
2.2 -0.0075322 0
2.225 -0.0075322 0
2.25 -0.0075322 0
2.275 -0.0075322 0
2.3 -0.0075322 0
2.325 -0.0075322 0
2.35 -0.0075322 0
2.375 -0.0075322 0
2.4 -0.0075322 0
2.425 -0.0075322 0
2.45 -0.0075322 0
2.475 -0.0075322 0
2.5 -0.0075322 0
0.0249408 0.0742485 0
0.049925 0.0737666 0
0.0749272 0.0733433 0
0.099938 0.0730465 0
0.124956 0.0726445 0
0.149964 0.072296 0
0.174975 0.0718903 0
0.199998 0.0713322 0
0.225033 0.0707299 0
0.25012 0.0699049 0
0.275279 0.0687108 0
0.30051 0.067164 0
0.325848 0.0650924 0
0.351248 0.062212 0
0.376564 0.0586298 0
0.4017 0.0547156 0
0.426728 0.0507851 0
0.45173 0.0468853 0
0.47674 0.0431035 0
0.501773 0.0395054 0
0.5268 0.0361403 0
0.551797 0.0330728 0
0.576758 0.0303193 0
0.60168 0.027891 0
0.626571 0.025795 0
0.651443 0.0240035 0
0.676306 0.0224842 0
0.701164 0.0212212 0
0.726023 0.0201932 0
0.750887 0.0193677 0
0.775756 0.0187188 0
0.800627 0.0182331 0
0.8255 0.0178971 0
0.85038 0.0176867 0
0.875272 0.0175686 0
0.900184 0.0175093 0
0.925117 0.0174828 0
0.95007 0.0174723 0
0.975039 0.0174688 0
1.00002 0.0174678 0
1.02501 0.0174676 0
1.05001 0.0174677 0
1.075 0.0174677 0
1.1 0.0174678 0
1.125 0.0174678 0
1.15 0.0174678 0
1.175 0.0174678 0
1.2 0.0174678 0
1.225 0.0174678 0
1.25 0.0174678 0
1.275 0.0174678 0
1.3 0.0174678 0
1.325 0.0174678 0
1.35 0.0174678 0
1.375 0.0174678 0
1.4 0.0174678 0
1.425 0.0174678 0
1.45 0.0174678 0
1.475 0.0174678 0
1.5 0.0174678 0
1.525 0.0174678 0
1.55 0.0174678 0
1.575 0.0174678 0
1.6 0.0174678 0
1.625 0.0174678 0
1.65 0.0174678 0
1.675 0.0174678 0
1.7 0.0174678 0
1.725 0.0174678 0
1.75 0.0174678 0
1.775 0.0174678 0
1.8 0.0174678 0
1.825 0.0174678 0
1.85 0.0174678 0
1.875 0.0174678 0
1.9 0.0174678 0
1.925 0.0174678 0
1.95 0.0174678 0
1.975 0.0174678 0
2 0.0174678 0
2.025 0.0174678 0
2.05 0.0174678 0
2.075 0.0174678 0
2.1 0.0174678 0
2.125 0.0174678 0
2.15 0.0174678 0
2.175 0.0174678 0
2.2 0.0174678 0
2.225 0.0174678 0
2.25 0.0174678 0
2.275 0.0174678 0
2.3 0.0174678 0
2.325 0.0174678 0
2.35 0.0174678 0
2.375 0.0174678 0
2.4 0.0174678 0
2.425 0.0174678 0
2.45 0.0174678 0
2.475 0.0174678 0
2.5 0.0174678 0
0.0249598 0.0991564 0
0.0499517 0.0985986 0
0.0749639 0.0981055 0
0.100004 0.0976973 0
0.125025 0.0972111 0
0.150038 0.0967628 0
0.175077 0.0962352 0
0.200105 0.0955727 0
0.225141 0.0948376 0
0.250251 0.0938552 0
0.275436 0.0925219 0
0.300655 0.0908244 0
0.325919 0.088653 0
0.351214 0.0858757 0
0.376447 0.082598 0
0.401565 0.079037 0
0.426606 0.0753371 0
0.451624 0.0715744 0
0.476665 0.0678739 0
0.501732 0.0643125 0
0.526782 0.060988 0
0.551794 0.0579696 0
0.576766 0.0552603 0
0.601689 0.0528687 0
0.626575 0.0508014 0
0.651444 0.0490331 0
0.676308 0.0475337 0
0.70117 0.0462838 0
0.726033 0.0452598 0
0.750898 0.0444318 0
0.775767 0.0437781 0
0.800638 0.0432868 0
0.825509 0.0429439 0
0.850386 0.0427249 0
0.875276 0.0425973 0
0.900186 0.0425291 0
0.925118 0.0424954 0
0.95007 0.0424798 0
0.975039 0.0424729 0
1.00002 0.0424699 0
1.02501 0.0424687 0
1.05001 0.0424682 0
1.075 0.042468 0
1.1 0.0424679 0
1.125 0.0424678 0
1.15 0.0424678 0
1.175 0.0424678 0
1.2 0.0424678 0
1.225 0.0424678 0
1.25 0.0424678 0
1.275 0.0424678 0
1.3 0.0424678 0
1.325 0.0424678 0
1.35 0.0424678 0
1.375 0.0424678 0
1.4 0.0424678 0
1.425 0.0424678 0
1.45 0.0424678 0
1.475 0.0424678 0
1.5 0.0424678 0
1.525 0.0424678 0
1.55 0.0424678 0
1.575 0.0424678 0
1.6 0.0424678 0
1.625 0.0424678 0
1.65 0.0424678 0
1.675 0.0424678 0
1.7 0.0424678 0
1.725 0.0424678 0
1.75 0.0424678 0
1.775 0.0424678 0
1.8 0.0424678 0
1.825 0.0424678 0
1.85 0.0424678 0
1.875 0.0424678 0
1.9 0.0424678 0
1.925 0.0424678 0
1.95 0.0424678 0
1.975 0.0424678 0
2 0.0424678 0
2.025 0.0424678 0
2.05 0.0424678 0
2.075 0.0424678 0
2.1 0.0424678 0
2.125 0.0424678 0
2.15 0.0424678 0
2.175 0.0424678 0
2.2 0.0424678 0
2.225 0.0424678 0
2.25 0.0424678 0
2.275 0.0424678 0
2.3 0.0424678 0
2.325 0.0424678 0
2.35 0.0424678 0
2.375 0.0424678 0
2.4 0.0424678 0
2.425 0.0424678 0
2.45 0.0424678 0
2.475 0.0424678 0
2.5 0.0424678 0
0.0249856 0.124037 0
0.0499972 0.123382 0
0.0750211 0.122798 0
0.10006 0.122284 0
0.125082 0.12179 0
0.150124 0.121281 0
0.175188 0.120659 0
0.200213 0.119934 0
0.225259 0.11908 0
0.250381 0.117959 0
0.275545 0.116558 0
0.30073 0.114823 0
0.325952 0.112615 0
0.351192 0.109913 0
0.37637 0.106833 0
0.401454 0.103504 0
0.426486 0.0999738 0
0.451524 0.0963181 0
0.476602 0.092651 0
0.501691 0.0891064 0
0.526754 0.085822 0
0.551783 0.0828513 0
0.576767 0.0801909 0
0.601695 0.0778448 0
0.62658 0.0758085 0
0.651447 0.0740583 0
0.67631 0.0725726 0
0.701172 0.0713332 0
0.726037 0.0703135 0
0.750907 0.0694848 0
0.775779 0.0688284 0
0.80065 0.0683339 0
0.825518 0.0679863 0
0.850392 0.0677605 0
0.875278 0.0676247 0
0.900186 0.0675484 0
0.925116 0.0675079 0
0.950069 0.0674872 0
0.975038 0.067477 0
1.00002 0.0674721 0
1.02501 0.0674698 0
1.05 0.0674687 0
1.075 0.0674682 0
1.1 0.067468 0
1.125 0.0674679 0
1.15 0.0674678 0
1.175 0.0674678 0
1.2 0.0674678 0
1.225 0.0674678 0
1.25 0.0674678 0
1.275 0.0674678 0
1.3 0.0674678 0
1.325 0.0674678 0
1.35 0.0674678 0
1.375 0.0674678 0
1.4 0.0674678 0
1.425 0.0674678 0
1.45 0.0674678 0
1.475 0.0674678 0
1.5 0.0674678 0
1.525 0.0674678 0
1.55 0.0674678 0
1.575 0.0674678 0
1.6 0.0674678 0
1.625 0.0674678 0
1.65 0.0674678 0
1.675 0.0674678 0
1.7 0.0674678 0
1.725 0.0674678 0
1.75 0.0674678 0
1.775 0.0674678 0
1.8 0.0674678 0
1.825 0.0674678 0
1.85 0.0674678 0
1.875 0.0674678 0
1.9 0.0674678 0
1.925 0.0674678 0
1.95 0.0674678 0
1.975 0.0674678 0
2 0.0674678 0
2.025 0.0674678 0
2.05 0.0674678 0
2.075 0.0674678 0
2.1 0.0674678 0
2.125 0.0674678 0
2.15 0.0674678 0
2.175 0.0674678 0
2.2 0.0674678 0
2.225 0.0674678 0
2.25 0.0674678 0
2.275 0.0674678 0
2.3 0.0674678 0
2.325 0.0674678 0
2.35 0.0674678 0
2.375 0.0674678 0
2.4 0.0674678 0
2.425 0.0674678 0
2.45 0.0674678 0
2.475 0.0674678 0
2.5 0.0674678 0
0.0250146 0.148929 0
0.0500449 0.148186 0
0.0750673 0.147558 0
0.100097 0.146985 0
0.125124 0.146481 0
0.150194 0.145921 0
0.175272 0.14525 0
0.200294 0.14451 0
0.225363 0.143564 0
0.250498 0.142348 0
0.275618 0.140923 0
0.300753 0.139173 0
0.32596 0.13694 0
0.351187 0.13428 0
0.376332 0.131334 0
0.401379 0.128148 0
0.426396 0.124711 0
0.451452 0.12109 0
0.476554 0.117431 0
0.50166 0.113914 0
0.526739 0.110666 0
0.551777 0.10773 0
0.576761 0.105115 0
0.601691 0.102815 0
0.626583 0.100808 0
0.651454 0.0990738 0
0.676313 0.0975996 0
0.70117 0.0963681 0
0.726036 0.0953509 0
0.750911 0.0945219 0
0.775789 0.0938657 0
0.800661 0.0933719 0
0.825527 0.0930235 0
0.850395 0.0927936 0
0.875278 0.0926512 0
0.900183 0.0925676 0
0.925113 0.0925204 0
0.950066 0.0924948 0
0.975036 0.0924813 0
1.00002 0.0924743 0
1.02501 0.0924708 0
1.05 0.0924692 0
1.075 0.0924684 0
1.1 0.092468 0
1.125 0.0924679 0
1.15 0.0924678 0
1.175 0.0924678 0
1.2 0.0924678 0
1.225 0.0924678 0
1.25 0.0924678 0
1.275 0.0924678 0
1.3 0.0924678 0
1.325 0.0924678 0
1.35 0.0924678 0
1.375 0.0924678 0
1.4 0.0924678 0
1.425 0.0924678 0
1.45 0.0924678 0
1.475 0.0924678 0
1.5 0.0924678 0
1.525 0.0924678 0
1.55 0.0924678 0
1.575 0.0924678 0
1.6 0.0924678 0
1.625 0.0924678 0
1.65 0.0924678 0
1.675 0.0924678 0
1.7 0.0924678 0
1.725 0.0924678 0
1.75 0.0924678 0
1.775 0.0924678 0
1.8 0.0924678 0
1.825 0.0924678 0
1.85 0.0924678 0
1.875 0.0924678 0
1.9 0.0924678 0
1.925 0.0924678 0
1.95 0.0924678 0
1.975 0.0924678 0
2 0.0924678 0
2.025 0.0924678 0
2.05 0.0924678 0
2.075 0.0924678 0
2.1 0.0924678 0
2.125 0.0924678 0
2.15 0.0924678 0
2.175 0.0924678 0
2.2 0.0924678 0
2.225 0.0924678 0
2.25 0.0924678 0
2.275 0.0924678 0
2.3 0.0924678 0
2.325 0.0924678 0
2.35 0.0924678 0
2.375 0.0924678 0
2.4 0.0924678 0
2.425 0.0924678 0
2.45 0.0924678 0
2.475 0.0924678 0
2.5 0.0924678 0
0.0250141 0.173922 0
0.0500624 0.173161 0
0.0751035 0.172547 0
0.100167 0.171908 0
0.125176 0.171376 0
0.15023 0.170773 0
0.175314 0.17008 0
0.200328 0.169365 0
0.225422 0.168357 0
0.250568 0.167097 0
0.275636 0.165695 0
0.30073 0.163915 0
0.325961 0.161605 0
0.351214 0.158935 0
0.376337 0.156058 0
0.401335 0.152933 0
0.426319 0.149505 0
0.451373 0.145863 0
0.476497 0.142207 0
0.501643 0.138723 0
0.526756 0.13551 0
0.551793 0.13261 0
0.576757 0.130038 0
0.601681 0.127776 0
0.626586 0.125794 0
0.651465 0.124079 0
0.676318 0.122619 0
0.701167 0.121394 0
0.726031 0.120377 0
0.750913 0.119547 0
0.775797 0.118894 0
0.800671 0.118406 0
0.825533 0.118061 0
0.850396 0.117829 0
0.875274 0.117681 0
0.900177 0.11759 0
0.925108 0.117535 0
0.950061 0.117504 0
0.975033 0.117486 0
1.00002 0.117477 0
1.02501 0.117472 0
1.05 0.11747 0
1.075 0.117469 0
1.1 0.117468 0
1.125 0.117468 0
1.15 0.117468 0
1.175 0.117468 0
1.2 0.117468 0
1.225 0.117468 0
1.25 0.117468 0
1.275 0.117468 0
1.3 0.117468 0
1.325 0.117468 0
1.35 0.117468 0
1.375 0.117468 0
1.4 0.117468 0
1.425 0.117468 0
1.45 0.117468 0
1.475 0.117468 0
1.5 0.117468 0
1.525 0.117468 0
1.55 0.117468 0
1.575 0.117468 0
1.6 0.117468 0
1.625 0.117468 0
1.65 0.117468 0
1.675 0.117468 0
1.7 0.117468 0
1.725 0.117468 0
1.75 0.117468 0
1.775 0.117468 0
1.8 0.117468 0
1.825 0.117468 0
1.85 0.117468 0
1.875 0.117468 0
1.9 0.117468 0
1.925 0.117468 0
1.95 0.117468 0
1.975 0.117468 0
2 0.117468 0
2.025 0.117468 0
2.05 0.117468 0
2.075 0.117468 0
2.1 0.117468 0
2.125 0.117468 0
2.15 0.117468 0
2.175 0.117468 0
2.2 0.117468 0
2.225 0.117468 0
2.25 0.117468 0
2.275 0.117468 0
2.3 0.117468 0
2.325 0.117468 0
2.35 0.117468 0
2.375 0.117468 0
2.4 0.117468 0
2.425 0.117468 0
2.45 0.117468 0
2.475 0.117468 0
2.5 0.117468 0
</DataArray>
</Points>
<PointData>
<DataArray NumberOfComponents='1' type='Int32' Name='Particle Type' format='ascii'>
0
0
0
0
0
0
0
0
0
0
0
0
0
0
0
0
0
0
0
0
0
0
1
1
1
1
1
1
1
1
1
1
1
1
1
1
1
1
1
1
1
1
1
1
1
1
1
1
1
1
1
1
1
1
1
1
1
1
1
1
1
1
1
1
1
1
1
1
1
1
1
1
1
1
1
1
1
1
1
1
1
1
1
1
1
1
1
1
1
1
1
1
1
1
1
1
1
1
1
1
1
1
1
1
1
1
1
1
1
1
1
1
1
1
1
1
1
1
1
1
1
1
1
1
1
1
1
1
1
1
1
1
1
1
1
1
1
1
1
1
1
1
1
1
1
1
1
1
1
1
1
1
1
1
1
1
1
1
1
1
1
1
1
1
1
1
1
1
1
1
1
1
1
1
1
1
1
1
1
1
1
1
1
1
1
1
1
1
1
1
1
1
1
1
1
1
1
1
1
1
1
1
1
1
1
1
1
1
1
1
1
1
1
1
1
1
1
1
1
1
1
1
1
1
1
1
1
1
1
1
1
1
1
1
1
1
1
1
1
1
1
1
1
1
1
1
1
1
1
1
1
1
1
1
1
1
1
1
1
1
1
1
1
1
1
1
1
1
1
1
1
1
1
1
1
1
1
1
1
1
1
1
1
1
1
1
1
1
1
1
1
1
1
1
1
1
1
1
1
1
1
1
1
1
1
1
1
1
1
1
1
1
1
1
1
1
1
1
1
1
1
1
1
1
1
1
1
1
1
1
1
1
1
1
1
1
1
1
1
1
1
1
1
1
1
1
1
1
1
1
1
1
1
1
1
1
1
1
1
1
1
1
1
1
1
1
1
1
1
1
1
1
1
1
1
1
1
1
1
1
1
1
1
1
1
1
1
1
1
1
1
1
1
1
1
1
1
1
1
1
1
1
1
1
1
1
1
1
1
1
1
1
1
1
1
1
1
1
1
1
1
1
1
1
1
1
1
1
1
1
1
1
1
1
1
1
1
1
1
1
1
1
1
1
1
1
1
1
1
1
1
1
1
1
1
1
1
1
1
1
1
1
1
1
1
1
1
1
1
1
1
1
1
1
1
1
1
1
1
1
1
1
1
1
1
1
1
1
1
1
1
1
1
1
1
1
1
1
1
1
1
1
1
1
1
1
1
1
1
1
1
1
1
1
1
1
1
1
1
1
1
1
1
1
1
1
1
1
1
1
1
1
1
1
1
1
1
1
1
1
1
1
1
1
1
1
1
1
1
1
1
1
1
1
1
1
1
1
1
1
1
1
1
1
1
1
1
1
1
1
1
1
1
1
1
1
1
1
1
1
1
1
1
1
1
1
1
1
1
1
1
1
1
1
1
1
1
1
1
1
1
1
1
1
1
1
1
1
1
1
1
1
1
1
1
1
1
1
1
1
1
1
1
1
1
1
1
1
1
1
1
1
1
1
1
1
1
1
1
1
1
1
1
1
1
1
1
1
1
1
1
1
1
1
1
1
1
1
1
1
1
1
1
1
1
1
1
1
1
1
1
1
1
1
1
1
1
1
1
1
1
1
1
1
1
1
1
1
1
1
1
1
1
1
1
1
1
1
1
1
1
1
1
1
1
1
1
1
1
1
1
1
1
1
1
1
1
1
1
1
1
1
1
1
1
1
1
1
1
1
1
1
1
1
1
1
1
1
1
1
1
1
1
1
1
1
1
1
1
1
1
1
1
1
1
1
1
1
1
1
1
1
1
1
1
1
1
1
1
1
1
1
1
1
1
1
1
1
1
1
1
1
1
1
1
1
1
1
1
1
1
1
1
1
1
1
1
1
1
1
1
1
1
1
1
1
1
1
</DataArray>
<DataArray NumberOfComponents='3' type='Float64' Name='Velocity' format='ascii'>
0 0 0
0 0 0
0 0 0
0 0 0
0 0 0
0 0 0
0 0 0
0 0 0
0 0 0
0 0 0
0 0 0
0 0 0
0 0 0
0 0 0
0 0 0
0 0 0
0 0 0
0 0 0
0 0 0
0 0 0
0 0 0
0 0 0
0.00197466 -0.0121588 0
0.000653596 -0.0178358 0
0.000546096 -0.0238409 0
-0.000439957 -0.0298487 0
-0.00195681 -0.0365475 0
-0.00106594 -0.0427724 0
-0.000682038 -0.0515238 0
0.000397323 -0.059986 0
0.0030123 -0.0688764 0
0.0043941 -0.0794555 0
0.0046123 -0.0888212 0
0.00514238 -0.0969146 0
0.00566192 -0.10596 0
0.00542656 -0.11544 0
0.00472087 -0.12333 0
0.00423564 -0.129314 0
0.00420908 -0.134517 0
0.00439167 -0.139629 0
0.00442556 -0.144336 0
0.00411934 -0.14801 0
0.0034963 -0.150375 0
0.0027079 -0.151601 0
0.00192381 -0.152072 0
0.00126159 -0.152151 0
0.000768399 -0.15208 0
0.0004372 -0.151983 0
0.000233602 -0.151906 0
0.000117767 -0.151856 0
5.62529e-05 -0.151827 0
2.55538e-05 -0.151813 0
1.10763e-05 -0.151806 0
4.59445e-06 -0.151802 0
1.82856e-06 -0.151801 0
6.99893e-07 -0.1518 0
2.58173e-07 -0.1518 0
9.19525e-08 -0.1518 0
3.16758e-08 -0.1518 0
1.05699e-08 -0.1518 0
3.42132e-09 -0.1518 0
1.07568e-09 -0.1518 0
3.28893e-10 -0.1518 0
9.78854e-11 -0.1518 0
2.8427e-11 -0.1518 0
8.04082e-12 -0.1518 0
2.22139e-12 -0.1518 0
5.94289e-13 -0.1518 0
1.35204e-13 -0.1518 0
1.72878e-14 -0.1518 0
1.53346e-15 -0.1518 0
6.36145e-17 -0.1518 0
2.11039e-18 -0.1518 0
5.76204e-20 -0.1518 0
1.75398e-21 -0.1518 0
-1.27292e-30 -0.1518 0
1.47597e-30 -0.1518 0
8.0115e-33 -0.1518 0
-1.52492e-30 -0.1518 0
1.26274e-30 -0.1518 0
-1.27717e-30 -0.1518 0
1.46944e-30 -0.1518 0
2.6781e-32 -0.1518 0
-6.19452e-22 -0.1518 0
-7.14116e-20 -0.1518 0
-7.54498e-19 -0.1518 0
-3.53214e-18 -0.1518 0
9.55912e-19 -0.1518 0
4.14599e-18 -0.1518 0
-7.67066e-18 -0.1518 0
-2.53244e-17 -0.1518 0
-1.62525e-17 -0.1518 0
1.03992e-17 -0.1518 0
1.52038e-17 -0.1518 0
2.85832e-17 -0.1518 0
4.32542e-17 -0.1518 0
-1.02655e-17 -0.1518 0
-7.75389e-17 -0.1518 0
-2.63225e-17 -0.1518 0
6.48168e-17 -0.1518 0
1.15453e-16 -0.1518 0
1.31721e-16 -0.1518 0
8.25955e-17 -0.1518 0
1.67772e-18 -0.1518 0
-1.37685e-16 -0.1518 0
-3.04576e-16 -0.1518 0
-2.4302e-16 -0.1518 0
2.8375e-16 -0.1518 0
-0.000657864 -0.00187785 0
-0.00110813 -0.00304613 0
-0.00109847 -0.00456587 0
-0.00107068 -0.00539166 0
-0.000922005 -0.0059542 0
0.000145689 -0.00733546 0
0.000166212 -0.0058895 0
-0.00028618 -0.00617075 0
0.000538147 -0.00672265 0
0.00103409 -0.00531769 0
0.000618194 -0.0055258 0
0.000628695 -0.00765453 0
0.00113117 -0.00911453 0
0.00240342 -0.0113372 0
0.00260178 -0.0165717 0
0.00174202 -0.021726 0
0.0015275 -0.0265249 0
0.000526641 -0.0315486 0
-0.000499341 -0.037428 0
-0.000484253 -0.0434293 0
-0.000210523 -0.0513782 0
0.000712901 -0.0601874 0
0.00242373 -0.069538 0
0.00366185 -0.0797875 0
0.00428619 -0.0893669 0
0.00489335 -0.0979337 0
0.00535034 -0.106679 0
0.00528016 -0.115458 0
0.00483455 -0.123046 0
0.00445543 -0.129152 0
0.00435462 -0.134488 0
0.0044069 -0.139542 0
0.00435966 -0.144082 0
0.00404592 -0.147624 0
0.00346057 -0.149953 0
0.00271759 -0.151226 0
0.00196397 -0.151783 0
0.00131219 -0.151951 0
0.000814785 -0.151954 0
0.000472655 -0.151909 0
0.000257413 -0.151865 0
0.000132207 -0.151835 0
6.4296e-05 -0.151817 0
2.97167e-05 -0.151808 0
1.30954e-05 -0.151804 0
5.51829e-06 -0.151801 0
2.22942e-06 -0.151801 0
8.65563e-07 -0.1518 0
3.23624e-07 -0.1518 0
1.16748e-07 -0.1518 0
4.07072e-08 -0.1518 0
1.37402e-08 -0.1518 0
4.49617e-09 -0.1518 0
1.42817e-09 -0.1518 0
4.40908e-10 -0.1518 0
1.32485e-10 -0.1518 0
3.87398e-11 -0.1518 0
1.10522e-11 -0.1518 0
3.09158e-12 -0.1518 0
8.32277e-13 -0.1518 0
2.17476e-13 -0.1518 0
3.17815e-14 -0.1518 0
2.92051e-15 -0.1518 0
1.32931e-16 -0.1518 0
-5.66224e-21 -0.1518 0
-3.38012e-19 -0.1518 0
-6.28147e-21 -0.1518 0
-5.78251e-30 -0.1518 0
6.67047e-30 -0.1518 0
-1.00494e-33 -0.1518 0
-6.69028e-30 -0.1518 0
5.82018e-30 -0.1518 0
-5.79966e-30 -0.1518 0
6.70799e-30 -0.1518 0
-1.93399e-21 -0.1518 0
-2.76546e-20 -0.1518 0
-3.56218e-19 -0.1518 0
-2.04284e-18 -0.1518 0
-6.56994e-18 -0.1518 0
-3.40568e-18 -0.1518 0
3.17576e-18 -0.1518 0
-6.22601e-18 -0.1518 0
-2.47444e-17 -0.1518 0
-2.76897e-17 -0.1518 0
-2.03203e-19 -0.1518 0
9.24157e-18 -0.1518 0
6.35694e-18 -0.1518 0
1.4842e-17 -0.1518 0
-1.54243e-20 -0.1518 0
-1.36601e-17 -0.1518 0
-1.46568e-17 -0.1518 0
1.38849e-17 -0.1518 0
8.25345e-17 -0.1518 0
4.31039e-17 -0.1518 0
-2.21698e-18 -0.1518 0
-5.08961e-17 -0.1518 0
-1.5699e-16 -0.1518 0
-1.29954e-16 -0.1518 0
-1.0637e-16 -0.1518 0
1.70233e-16 -0.1518 0
-0.000481575 -0.00136283 0
-0.00078843 -0.00140878 0
-0.000779298 -0.00249311 0
-0.000880548 -0.0031707 0
-0.00100899 -0.0038336 0
0.000104072 -0.00654135 0
0.000171205 -0.00462978 0
-0.000325742 -0.00549714 0
0.000426136 -0.00667905 0
0.000864949 -0.00454726 0
0.000590038 -0.00497864 0
0.00122571 -0.00861152 0
0.00186678 -0.0121411 0
0.00247153 -0.0140281 0
0.00255844 -0.0194314 0
0.0023005 -0.0237812 0
0.00185165 -0.0291966 0
0.000895344 -0.0333634 0
1.32777e-05 -0.0379417 0
-0.000350473 -0.0435607 0
-3.60704e-05 -0.0511355 0
0.000869788 -0.0601786 0
0.00212597 -0.0698795 0
0.00322889 -0.0802202 0
0.00400994 -0.0901637 0
0.00461814 -0.09907 0
0.00502896 -0.107544 0
0.0050984 -0.115712 0
0.00488372 -0.122924 0
0.00462666 -0.128981 0
0.0044983 -0.134346 0
0.00446296 -0.139344 0
0.00435336 -0.14377 0
0.00402649 -0.147231 0
0.00345913 -0.149554 0
0.00273983 -0.150885 0
0.00200073 -0.151527 0
0.00135156 -0.151778 0
0.000848584 -0.151847 0
0.000497641 -0.151848 0
0.000273892 -0.151833 0
0.000142106 -0.151819 0
6.97847e-05 -0.151809 0
3.25536e-05 -0.151804 0
1.44723e-05 -0.151802 0
6.14952e-06 -0.151801 0
2.50406e-06 -0.1518 0
9.79422e-07 -0.1518 0
3.68757e-07 -0.1518 0
1.33904e-07 -0.1518 0
4.69776e-08 -0.1518 0
1.59486e-08 -0.1518 0
5.24723e-09 -0.1518 0
1.67529e-09 -0.1518 0
5.19687e-10 -0.1518 0
1.56784e-10 -0.1518 0
4.609e-11 -0.1518 0
1.32075e-11 -0.1518 0
3.69213e-12 -0.1518 0
1.01093e-12 -0.1518 0
2.61256e-13 -0.1518 0
4.41615e-14 -0.1518 0
4.26897e-15 -0.1518 0
2.21812e-16 -0.1518 0
1.9821e-18 -0.1518 0
-2.85546e-19 -0.1518 0
-3.90848e-21 -0.1518 0
-3.019e-30 -0.1518 0
3.55885e-30 -0.1518 0
7.17153e-33 -0.1518 0
-3.57487e-30 -0.1518 0
2.99916e-30 -0.1518 0
-2.96694e-30 -0.1518 0
-1.99412e-22 -0.1518 0
-1.1255e-20 -0.1518 0
-1.49333e-19 -0.1518 0
-1.06308e-18 -0.1518 0
-4.12143e-18 -0.1518 0
-1.03304e-17 -0.1518 0
-1.09163e-17 -0.1518 0
-8.05419e-18 -0.1518 0
-1.39162e-17 -0.1518 0
-1.60597e-17 -0.1518 0
-2.5424e-17 -0.1518 0
-1.9907e-17 -0.1518 0
-3.95103e-17 -0.1518 0
-3.94307e-17 -0.1518 0
1.21369e-17 -0.1518 0
3.06248e-17 -0.1518 0
5.16718e-17 -0.1518 0
2.08381e-17 -0.1518 0
6.5813e-19 -0.1518 0
-4.29311e-17 -0.1518 0
-1.59039e-16 -0.1518 0
-1.30586e-16 -0.1518 0
-6.7362e-17 -0.1518 0
1.12639e-16 -0.1518 0
2.36525e-16 -0.1518 0
1.00189e-16 -0.1518 0
-2.12711e-16 -0.1518 0
-0.000299226 -0.000712924 0
-0.000420218 8.82361e-05 0
-0.000218472 -0.00254252 0
-0.000380255 -0.00216118 0
-0.000279101 -0.00187245 0
0.000219721 -0.00541576 0
0.000159044 -0.00373082 0
-3.46031e-05 -0.00549925 0
5.52221e-05 -0.00737629 0
0.000219832 -0.00543031 0
0.00038398 -0.00681211 0
0.00143143 -0.0103287 0
0.00253547 -0.013486 0
0.00264021 -0.0163411 0
0.00271638 -0.0207713 0
0.00256099 -0.0261215 0
0.00161724 -0.0301109 0
0.000533727 -0.032809 0
-0.000626433 -0.0375722 0
-0.00117282 -0.0434583 0
-0.000507297 -0.0513569 0
0.000685744 -0.0607097 0
0.00197899 -0.0705332 0
0.00318604 -0.0809611 0
0.00402507 -0.09113 0
0.00448543 -0.100188 0
0.00475065 -0.108449 0
0.00487145 -0.116151 0
0.00482552 -0.122976 0
0.00469166 -0.128858 0
0.00459055 -0.13416 0
0.0045323 -0.13909 0
0.00439955 -0.143436 0
0.00406492 -0.146846 0
0.0034985 -0.149177 0
0.00277966 -0.150565 0
0.00203692 -0.151287 0
0.00138085 -0.151617 0
0.000869966 -0.151747 0
0.000511925 -0.151791 0
0.000282716 -0.151802 0
0.000147185 -0.151803 0
7.25258e-05 -0.151802 0
3.3947e-05 -0.151801 0
1.51422e-05 -0.151801 0
6.4552e-06 -0.1518 0
2.63688e-06 -0.1518 0
1.03453e-06 -0.1518 0
3.90653e-07 -0.1518 0
1.42254e-07 -0.1518 0
5.0041e-08 -0.1518 0
1.70321e-08 -0.1518 0
5.61716e-09 -0.1518 0
1.79753e-09 -0.1518 0
5.588e-10 -0.1518 0
1.6892e-10 -0.1518 0
4.97128e-11 -0.1518 0
1.42685e-11 -0.1518 0
4.01045e-12 -0.1518 0
1.10072e-12 -0.1518 0
2.87737e-13 -0.1518 0
5.02269e-14 -0.1518 0
5.00708e-15 -0.1518 0
2.7156e-16 -0.1518 0
2.829e-18 -0.1518 0
-3.2124e-19 -0.1518 0
-4.96282e-21 -0.1518 0
-7.80874e-30 -0.1518 0
9.04241e-30 -0.1518 0
-1.84627e-32 -0.1518 0
-9.04008e-30 -0.1518 0
7.85588e-30 -0.1518 0
-7.84836e-30 -0.1518 0
9.02871e-30 -0.1518 0
-2.39294e-21 -0.1518 0
-1.36283e-19 -0.1518 0
-1.33334e-18 -0.1518 0
-6.49701e-18 -0.1518 0
-1.28595e-17 -0.1518 0
-1.39528e-17 -0.1518 0
-2.10644e-17 -0.1518 0
-3.02802e-17 -0.1518 0
-2.06181e-17 -0.1518 0
2.1587e-19 -0.1518 0
-5.5351e-18 -0.1518 0
-6.93721e-17 -0.1518 0
-4.50896e-17 -0.1518 0
3.11579e-17 -0.1518 0
4.45334e-17 -0.1518 0
8.95056e-17 -0.1518 0
5.60204e-17 -0.1518 0
1.67047e-17 -0.1518 0
-1.13432e-16 -0.1518 0
-1.73819e-16 -0.1518 0
-2.96682e-17 -0.1518 0
1.4983e-16 -0.1518 0
2.36079e-16 -0.1518 0
-1.16221e-16 -0.1518 0
-1.87007e-16 -0.1518 0
-1.44272e-16 -0.1518 0
-0.000509002 -0.00193582 0
-0.000551281 -0.0022827 0
-0.000766247 -0.00401126 0
-0.00050603 -0.00329146 0
0.0004457 -0.0036958 0
5.92441e-06 -0.00643344 0
0.00023361 -0.00529241 0
0.000987419 -0.00803543 0
0.000190002 -0.0102848 0
-8.17602e-05 -0.00902542 0
0.00123362 -0.0113057 0
0.00236687 -0.0148809 0
0.00307406 -0.0159895 0
0.00324336 -0.018295 0
0.00353356 -0.0219174 0
0.00336351 -0.0263999 0
0.00219979 -0.0286721 0
0.000447947 -0.0318015 0
-0.0015991 -0.0365175 0
-0.00220218 -0.0429592 0
-0.00127309 -0.0520473 0
7.84277e-05 -0.0619387 0
0.00167274 -0.0718157 0
0.00326172 -0.0821342 0
0.00422525 -0.0921536 0
0.00453188 -0.101121 0
0.00461715 -0.109235 0
0.00468474 -0.116641 0
0.00468433 -0.123142 0
0.00462365 -0.12881 0
0.00459066 -0.134001 0
0.00458689 -0.138852 0
0.00448747 -0.143124 0
0.00416022 -0.146487 0
0.00357988 -0.148824 0
0.00283715 -0.150262 0
0.00207119 -0.151058 0
0.00139813 -0.151461 0
0.000877175 -0.15165 0
0.000514196 -0.151735 0
0.000283028 -0.151772 0
0.000146939 -0.151788 0
7.22421e-05 -0.151795 0
3.37545e-05 -0.151798 0
1.5036e-05 -0.151799 0
6.40355e-06 -0.1518 0
2.61393e-06 -0.1518 0
1.02505e-06 -0.1518 0
3.86965e-07 -0.1518 0
1.40893e-07 -0.1518 0
4.95617e-08 -0.1518 0
1.68704e-08 -0.1518 0
5.56477e-09 -0.1518 0
1.78104e-09 -0.1518 0
5.53837e-10 -0.1518 0
1.67473e-10 -0.1518 0
4.93465e-11 -0.1518 0
1.41681e-11 -0.1518 0
3.97513e-12 -0.1518 0
1.09986e-12 -0.1518 0
2.83661e-13 -0.1518 0
4.9643e-14 -0.1518 0
4.925e-15 -0.1518 0
2.65457e-16 -0.1518 0
2.58883e-18 -0.1518 0
-3.41848e-19 -0.1518 0
-5.92211e-21 -0.1518 0
-1.18534e-29 -0.1518 0
1.36219e-29 -0.1518 0
-2.6229e-32 -0.1518 0
-1.35772e-29 -0.1518 0
1.18901e-29 -0.1518 0
-1.19025e-29 -0.1518 0
1.99412e-22 -0.1518 0
1.11124e-20 -0.1518 0
8.05981e-20 -0.1518 0
-7.64709e-20 -0.1518 0
-3.25707e-18 -0.1518 0
-1.48091e-17 -0.1518 0
-2.33211e-17 -0.1518 0
-2.46208e-17 -0.1518 0
-2.52264e-17 -0.1518 0
-4.78039e-18 -0.1518 0
2.93547e-17 -0.1518 0
-2.8631e-18 -0.1518 0
-7.61092e-17 -0.1518 0
-8.30629e-17 -0.1518 0
-1.36561e-18 -0.1518 0
8.9355e-17 -0.1518 0
9.67606e-17 -0.1518 0
-3.5126e-17 -0.1518 0
-1.23151e-16 -0.1518 0
3.22519e-18 -0.1518 0
6.51144e-17 -0.1518 0
-2.71955e-17 -0.1518 0
1.05685e-16 -0.1518 0
3.62701e-17 -0.1518 0
-3.09701e-16 -0.1518 0
-1.41726e-16 -0.1518 0
-1.71834e-17 -0.1518 0
-0.000712518 -0.00263432 0
-0.000521213 -0.00486943 0
-0.000324438 -0.00693004 0
0.000251599 -0.00954753 0
0.000278667 -0.01189 0
-0.000978529 -0.0128486 0
0.000542981 -0.0129866 0
0.00258826 -0.0161019 0
0.00126029 -0.0177255 0
0.000207405 -0.0175348 0
0.00170517 -0.0193764 0
0.00267721 -0.0208659 0
0.00252215 -0.0203389 0
0.00297282 -0.0218349 0
0.00395268 -0.0254346 0
0.00404155 -0.0282849 0
0.00251694 -0.0293195 0
-0.000126974 -0.0310169 0
-0.00217673 -0.0348568 0
-0.00237102 -0.0424912 0
-0.00163243 -0.052878 0
-0.000498097 -0.0633691 0
0.00129793 -0.073529 0
0.00317251 -0.0836417 0
0.00426763 -0.0931629 0
0.00460636 -0.101826 0
0.0046615 -0.109819 0
0.00463036 -0.117047 0
0.00452495 -0.123318 0
0.00444456 -0.128823 0
0.00449522 -0.133926 0
0.00461509 -0.138702 0
0.00460459 -0.142886 0
0.00430087 -0.146182 0
0.00369336 -0.148501 0
0.0029046 -0.149974 0
0.00209836 -0.150835 0
0.00140042 -0.151307 0
0.000868757 -0.151554 0
0.000503889 -0.15168 0
0.000274684 -0.151742 0
0.000141377 -0.151773 0
6.89768e-05 -0.151788 0
3.20125e-05 -0.151795 0
1.41762e-05 -0.151798 0
6.00636e-06 -0.151799 0
2.44078e-06 -0.1518 0
9.53386e-07 -0.1518 0
3.58669e-07 -0.1518 0
1.30194e-07 -0.1518 0
4.56755e-08 -0.1518 0
1.55104e-08 -0.1518 0
5.10545e-09 -0.1518 0
1.63102e-09 -0.1518 0
5.06306e-10 -0.1518 0
1.5292e-10 -0.1518 0
4.49703e-11 -0.1518 0
1.29034e-11 -0.1518 0
3.61033e-12 -0.1518 0
9.79263e-13 -0.1518 0