<?xml version='1.0' encoding='UTF-8'?>
<VTKFile byte_order='LittleEndian' version='0.1' type = 'UnstructuredGrid'>
<UnstructuredGrid>
<FieldData>
<DataArray type='Float64' Name='Time' NumberOfComponents='1' NumberOfTuples='1' format='ascii'>
5
</DataArray>
</FieldData>
<Piece NumberOfCells='808' NumberOfPoints='808'>
<Points>
<DataArray NumberOfComponents='3' type='Float64' Name='position' format='ascii'>
-0.00217461 -0.00244877 0
-0.00419166 0.0267257 0
-0.00975633 0.0495447 0
-0.0071515 0.0874482 0
-0.00751351 0.0950629 0
-0.0010651 0.123094 0
-0.00752124 0.150103 0
-0.00533823 0.177438 0
0.0262679 -0.0065244 0
0.0444678 -0.0062981 0
0.0755701 -0.00406963 0
0.0971091 -0.00277907 0
0.123011 -0.00273326 0
0.153998 -0.00656833 0
0.1759 -0.0139203 0
0.204029 -0.0159187 0
0.20684 -0.011173 0
0.231942 -0.0152915 0
0.251653 -0.026147 0
0.296709 -0.0299744 0
0.316809 -0.0455706 0
0.334522 -0.00131233 0
0.354524 -0.951381 0
0.379288 -0.929063 0
0.391836 -0.938595 0
0.411387 -0.922281 0
0.4473 -0.903394 0
0.496515 -0.912394 0
0.521146 -0.909127 0
0.544781 -0.906822 0
0.570275 -0.91156 0
0.609618 -0.914477 0
0.622935 -0.915866 0
0.650415 -0.927745 0
0.661377 -0.921984 0
0.697711 -0.901251 0
0.712192 -0.901908 0
0.734132 -0.909526 0
0.773451 -0.919891 0
0.805998 -0.921399 0
0.836296 -0.927079 0
0.878409 -0.890869 0
0.904856 -0.902793 0
0.621417 -1.31028 0
0.907152 -1.01499 0
0.928255 -1.01191 0
0.964783 -1.02699 0
0.994767 -1.04132 0
1.01799 -1.06126 0
1.06488 -1.05828 0
1.08117 -1.09288 0
1.11114 -1.13313 0
1.13602 -1.15503 0
1.15713 -1.14433 0
1.19081 -1.16797 0
1.17757 -1.21928 0
1.22045 -1.22073 0
1.2658 -1.2738 0
1.29457 -1.2837 0
1.33432 -1.29894 0
1.30457 -1.2817 0
1.3507 -1.28957 0
1.3635 -1.2979 0
1.38736 -1.32409 0
1.40081 -1.32271 0
1.44372 -1.35114 0
1.47276 -1.36334 0
1.49226 -1.37125 0
1.53389 -1.37384 0
1.54241 -1.3865 0
1.57207 -1.40685 0
1.59863 -1.41882 0
1.6197 -1.43252 0
1.65154 -1.42666 0
1.70098 -1.43266 0
1.73148 -1.43181 0
1.69827 -1.45234 0
1.75123 -1.47698 0
1.77651 -1.47211 0
1.81429 -1.47142 0
1.85043 -1.47386 0
1.85817 -1.48051 0
1.89426 -1.55647 0
1.89379 -1.53177 0
1.9094 -1.52144 0
1.94678 -1.53686 0
1.98056 -1.56353 0
1.99397 -1.55755 0
2.03214 -1.54379 0
2.0631 -1.54053 0
2.06636 -1.5666 0
2.08752 -1.59519 0
2.10736 -1.58027 0
2.15024 -1.56494 0
2.17867 -1.57697 0
2.20234 -1.60441 0
2.2206 -1.60542 0
2.22895 -1.58901 0
2.26388 -1.58069 0
2.30172 -1.58149 0
2.3186 -1.58626 0
2.33002 -1.59712 0
2.35193 -1.60288 0
2.37816 -1.60096 0
2.40945 -1.59181 0
2.44095 -1.5884 0
2.46361 -1.59422 0
2.47579 -1.60202 0
0.0507283 0.0387327 0
0.0465467 0.0282786 0
0.0562527 0.00689751 0
0.0928728 0.00958598 0
0.111617 -0.00303921 0
0.164036 0.0175132 0
0.185069 0.00077642 0
0.210574 0.00234573 0
0.214235 0.0114907 0
0.224999 0.0224861 0
0.256368 0.0186631 0
0.260813 0.0432924 0
0.303435 0.0411799 0
0.327832 0.0221589 0
0.369799 -0.937238 0
0.38071 -0.938962 0
0.383188 -0.914654 0
0.410781 -0.906564 0
0.435683 -0.89698 0
0.487201 -0.891224 0
0.510702 -0.881379 0
0.525485 -0.875156 0
0.560438 -0.887199 0
0.584808 -0.901763 0
0.626405 -0.865821 0
0.641031 -0.892363 0
0.66966 -0.900365 0
0.687779 -0.904666 0
0.720915 -0.906797 0
0.735002 -0.882303 0
0.758673 -0.900197 0
0.790396 -0.879619 0
0.825155 -0.885993 0
0.879358 -0.880653 0
0.916187 -0.895477 0
0.93823 -0.919136 0
0.965731 -0.938983 0
0.963645 -0.968223 0
0.960225 -0.991749 0
1.00399 -1.00192 0
1.0251 -1.02237 0
1.05683 -1.03696 0
1.08686 -1.06277 0
1.09541 -1.08278 0
1.14117 -1.10734 0
1.15289 -1.10403 0
1.17748 -1.12259 0
1.21013 -1.15358 0
1.2455 -1.15285 0
1.23391 -1.21552 0
1.24756 -1.20918 0
1.25143 -1.23275 0
1.30037 -1.24518 0
1.35458 -1.25459 0
1.38161 -1.27307 0
1.37757 -1.31832 0
1.41169 -1.32452 0
1.44682 -1.32801 0
1.4642 -1.3556 0
1.48179 -1.33806 0
1.52873 -1.33814 0
1.55008 -1.34952 0
1.56687 -1.35851 0
1.58334 -1.39247 0
1.61724 -1.41498 0
1.64451 -1.41642 0
1.68909 -1.41201 0
1.73894 -1.40772 0
1.74299 -1.42388 0
1.75495 -1.42179 0
1.79395 -1.44177 0
1.80509 -1.47533 0
1.83684 -1.48796 0
1.84705 -1.48456 0
1.8857 -1.49892 0
1.89541 -1.50131 0
1.92568 -1.52133 0
1.95257 -1.51824 0
1.97239 -1.51369 0
2.00208 -1.52657 0
2.02705 -1.52902 0
2.05184 -1.53303 0
2.07591 -1.54911 0
2.0888 -1.55214 0
2.11062 -1.55789 0
2.15221 -1.54755 0
2.1718 -1.55522 0
2.19981 -1.57308 0
2.222 -1.57241 0
2.23962 -1.56791 0
2.26333 -1.56166 0
2.29263 -1.55721 0
2.31895 -1.55795 0
2.3352 -1.5676 0
2.35407 -1.57761 0
2.3814 -1.57475 0
2.41153 -1.56507 0
2.43817 -1.56266 0
2.45937 -1.56742 0
2.47701 -1.57177 0
0.0110162 0.0787249 0
0.0517297 0.0500065 0
0.0650085 0.0432268 0
0.100009 0.0368842 0
0.139442 0.0303153 0
0.143167 0.0576052 0
0.160255 0.0395547 0
0.211454 0.0210962 0
0.207592 0.0297835 0
0.212446 0.0386926 0
0.198599 0.00121237 0
0.269834 0.0388915 0
0.329705 0.0469644 0
0.367673 0.0430656 0
0.392652 0.0431543 0
0.365524 -0.880321 0
0.410361 -0.896573 0
0.414635 -0.865061 0
0.453487 -0.872556 0
0.467195 -0.864602 0
0.494113 -0.838394 0
0.531929 -0.854759 0
0.552458 -0.832098 0
0.594978 -0.84858 0
0.602647 -0.827617 0
0.645123 -0.852819 0
0.664231 -0.854442 0
0.682416 -0.875871 0
0.715553 -0.856654 0
0.75279 -0.848094 0
0.773466 -0.869515 0
0.790843 -0.861631 0
0.820035 -0.843495 0
0.870901 -0.868541 0
0.91734 -0.869142 0
0.936591 -0.891627 0
0.941108 -0.90706 0
0.951797 -0.926785 0
0.978098 -0.945922 0
0.983613 -0.963364 0
1.0072 -0.990026 0
1.05093 -1.02889 0
1.06194 -1.02185 0
1.07686 -1.06298 0
1.11289 -1.08052 0
1.14574 -1.08846 0
1.17874 -1.09723 0
1.19646 -1.10504 0
1.24281 -1.1369 0
1.24578 -1.16402 0
1.26083 -1.16034 0
1.26194 -1.21708 0
1.32036 -1.22305 0
1.35826 -1.22561 0
1.37817 -1.2308 0
1.40505 -1.26622 0
1.42767 -1.30509 0
1.44604 -1.31552 0
1.465 -1.31771 0
1.52171 -1.32505 0
1.53939 -1.31732 0
1.54363 -1.34084 0
1.59403 -1.3384 0
1.6068 -1.36309 0
1.61481 -1.39566 0
1.63087 -1.38641 0
1.68935 -1.38709 0
1.73364 -1.39542 0
1.72756 -1.40564 0
1.7661 -1.41921 0
1.78276 -1.37663 0
1.79804 -1.45308 0
1.8274 -1.46818 0
1.85475 -1.44416 0
1.88195 -1.46421 0
1.89882 -1.47257 0
1.93164 -1.49493 0
1.96334 -1.50452 0
1.97095 -1.47885 0
1.98674 -1.48271 0
2.02608 -1.50704 0
2.05305 -1.51516 0
2.06937 -1.50703 0
2.0993 -1.52164 0
2.12556 -1.53396 0
2.13633 -1.53178 0
2.16862 -1.5323 0
2.2069 -1.5335 0
2.22528 -1.53704 0
2.23837 -1.54268 0
2.26096 -1.54655 0
2.29203 -1.53403 0
2.31876 -1.52914 0
2.3371 -1.54121 0
2.3554 -1.5517 0
2.38327 -1.54786 0
2.41441 -1.53728 0
2.43771 -1.53513 0
2.45557 -1.5396 0
2.47432 -1.54507 0
0.032104 0.0675073 0
0.0760455 0.0819343 0
0.0775499 0.0690294 0
0.117941 0.0754292 0
0.134258 0.0651009 0
0.152071 0.0916057 0
0.187868 0.0756813 0
0.188805 0.0647321 0
0.208735 0.0494715 0
0.216855 0.0661853 0
0.263441 0.0874354 0
0.315706 0.0928057 0
0.343776 0.0780055 0
0.378142 0.0947164 0
0.387959 0.0928112 0
0.360631 -0.838113 0
0.393098 -0.827178 0
0.40827 -0.813951 0
0.441054 -0.820806 0
0.47202 -0.827242 0
0.495729 -0.802802 0
0.538113 -0.820906 0
0.54913 -0.817764 0
0.575639 -0.828429 0
0.62348 -0.84798 0
0.637726 -0.841474 0
0.667295 -0.825525 0
0.702716 -0.824914 0
0.716839 -0.822348 0
0.760542 -0.827142 0
0.774302 -0.808434 0
0.804267 -0.815416 0
0.831917 -0.80376 0
0.858628 -0.845291 0
0.90892 -0.849451 0
0.92824 -0.86271 0
0.933914 -0.877861 0
0.954681 -0.904445 0
0.988989 -0.911961 0
1.01525 -0.945399 0
1.00388 -0.942287 0
1.05191 -0.992771 0
1.08114 -0.993241 0
1.09119 -1.04234 0
1.12768 -1.04087 0
1.14782 -1.03825 0
1.17657 -1.07947 0
1.20272 -1.08878 0
1.22644 -1.10531 0
1.26246 -1.15022 0
1.27377 -1.15058 0
1.30524 -1.18666 0
1.34037 -1.20142 0
1.35247 -1.20588 0
1.38079 -1.216 0
1.40052 -1.23026 0
1.41727 -1.2522 0
1.45615 -1.28145 0
1.48104 -1.29914 0
1.48167 -1.28039 0
1.53904 -1.28678 0
1.56909 -1.27532 0
1.57477 -1.30227 0
1.62751 -1.31955 0
1.6396 -1.35903 0
1.65484 -1.36956 0
1.68018 -1.36136 0
1.70965 -1.37046 0
1.72838 -1.38364 0
1.76257 -1.38461 0
1.79292 -1.37262 0
1.81294 -1.38176 0
1.83836 -1.43388 0
1.85312 -1.42838 0
1.86873 -1.40786 0
1.90887 -1.46012 0
1.94186 -1.47449 0
1.94655 -1.4646 0
1.97246 -1.44541 0
1.99696 -1.45809 0
2.01449 -1.49116 0
2.0429 -1.49913 0
2.07962 -1.48232 0
2.10296 -1.4802 0
2.1135 -1.50745 0
2.13889 -1.51824 0
2.1755 -1.50187 0
2.20294 -1.49511 0
2.22543 -1.51052 0
2.2431 -1.52131 0
2.26027 -1.5199 0
2.28735 -1.5089 0
2.31914 -1.50662 0
2.34007 -1.51496 0
2.35619 -1.5243 0
2.38262 -1.52018 0
2.41532 -1.50883 0
2.43948 -1.5075 0
2.45534 -1.51456 0
2.47204 -1.5233 0
0.0149179 0.0937168 0
0.0520374 0.10155 0
0.0759936 0.104785 0
0.0988159 0.104851 0
0.129995 0.116733 0
0.151265 0.103985 0
0.174892 0.0861473 0
0.170287 0.107347 0
0.231708 0.0983516 0
0.250938 0.0939049 0
0.282539 0.110255 0
0.319001 0.143526 0
0.323146 0.123519 0
0.373836 0.127787 0
0.388359 0.152921 0
0.419542 0.142193 0
0.403151 -0.775417 0
0.424098 -0.792959 0
0.44037 -0.801989 0
0.477502 -0.786637 0
0.506202 -0.802388 0
0.546718 -0.785085 0
0.57101 -0.785863 0
0.594959 -0.76888 0
0.610268 -0.813712 0
0.636754 -0.824596 0
0.678134 -0.800978 0
0.685855 -0.772654 0
0.730792 -0.791649 0
0.757535 -0.800747 0
0.765543 -0.774748 0
0.79555 -0.788296 0
0.815452 -0.801101 0
0.839491 -0.823958 0
0.890996 -0.823816 0
0.967789 -0.792139 0
0.932046 -0.826067 0
0.947474 -0.88246 0
0.982045 -0.886282 0
1.00293 -0.906475 0
0.998127 -0.952132 0
1.04137 -0.958104 0
1.06889 -0.951563 0
1.11196 -1.0083 0
1.10521 -1.03167 0
1.16241 -1.03284 0
1.16713 -1.08284 0
1.19118 -1.07638 0
1.24398 -1.07719 0
1.24707 -1.09787 0
1.26888 -1.13209 0
1.30129 -1.15113 0
1.32031 -1.14878 0
1.35293 -1.16116 0
1.3746 -1.17907 0
1.41956 -1.19781 0
1.40855 -1.22293 0
1.44151 -1.25163 0
1.45685 -1.2496 0
1.48655 -1.27146 0
1.53955 -1.25929 0
1.54759 -1.26896 0
1.56766 -1.28923 0
1.61442 -1.30421 0
1.63489 -1.32629 0
1.66994 -1.34155 0
1.67166 -1.33162 0
1.72931 -1.33682 0
1.75048 -1.35304 0
1.75397 -1.37842 0
1.77995 -1.35099 0
1.8074 -1.36604 0
1.82027 -1.38984 0
1.85148 -1.38862 0
1.88339 -1.39074 0
1.91185 -1.43165 0
1.93145 -1.43562 0
1.94546 -1.43494 0
1.96821 -1.41963 0
1.99944 -1.43852 0
2.01801 -1.4731 0
2.03861 -1.46875 0
2.0742 -1.44919 0
2.10408 -1.46302 0
2.11747 -1.48437 0
2.14113 -1.48874 0
2.17436 -1.47124 0
2.2019 -1.46892 0
2.22403 -1.48291 0
2.24346 -1.49605 0
2.26163 -1.49471 0
2.28746 -1.48322 0
2.31892 -1.4812 0
2.34158 -1.49198 0
2.35724 -1.49853 0
2.38036 -1.48966 0
2.4133 -1.4799 0
2.44178 -1.48277 0
2.45904 -1.49126 0
2.47374 -1.49855 0
0.00711788 0.146062 0
0.0288847 0.13736 0
0.0557755 0.14161 0
0.0887856 0.110838 0
0.134169 0.126925 0
0.147926 0.146631 0
0.159742 0.144179 0
0.186177 0.1332 0
0.182974 0.142679 0
0.256367 0.144504 0
0.264309 0.18092 0
0.299803 0.168946 0
0.334902 0.165748 0
0.378384 0.168034 0
0.38142 0.178064 0
0.410672 0.188848 0
0.410446 0.169105 0
0.404211 -0.764564 0
0.445107 -0.772887 0
0.47725 -0.776461 0
0.516665 -0.76397 0
0.525626 -0.771347 0
0.563842 -0.770512 0
0.604481 -0.75512 0
0.605274 -0.768561 0
0.657557 -0.784078 0
0.669984 -0.771118 0
0.703734 -0.770326 0
0.721378 -0.771226 0
0.743658 -0.782388 0
0.763031 -0.784512 0
0.775896 -0.771792 0
0.814814 -0.77663 0
0.851351 -0.795725 0
0.864051 -0.793384 0
0.934007 -0.762037 0
0.973892 -0.727573 0
0.939452 -0.855451 0
0.997194 -0.866832 0
1.01674 -0.894772 0
1.03216 -0.909872 0
1.0354 -0.935287 0
1.05842 -0.933782 0
1.12583 -0.975007 0
1.12861 -1.00372 0
1.16943 -1.02263 0
1.20364 -1.05139 0
1.21059 -1.03716 0
1.226 -1.0703 0
1.25717 -1.07428 0
1.26843 -1.10642 0
1.31018 -1.14182 0
1.30937 -1.13193 0
1.3582 -1.14804 0
1.38861 -1.1527 0
1.39908 -1.16887 0
1.42918 -1.18855 0
1.43158 -1.21387 0
1.45249 -1.19658 0
1.49151 -1.2256 0
1.52828 -1.24666 0
1.54021 -1.24053 0
1.56299 -1.25892 0
1.60228 -1.27588 0
1.61675 -1.27419 0
1.65639 -1.29802 0
1.69503 -1.3162 0
1.71365 -1.31979 0
1.72412 -1.32751 0
1.75489 -1.33002 0
1.78381 -1.3295 0
1.80298 -1.34374 0
1.83831 -1.35769 0
1.86495 -1.36543 0
1.8731 -1.37522 0
1.91308 -1.37826 0
1.94422 -1.41536 0
1.93942 -1.40447 0
1.97582 -1.39288 0
2.00665 -1.41175 0
2.01191 -1.435 0
2.045 -1.43818 0
2.07465 -1.43622 0
2.10723 -1.44693 0
2.12812 -1.46099 0
2.13994 -1.45682 0
2.16944 -1.4416 0
2.20001 -1.44545 0
2.22391 -1.4601 0
2.24315 -1.46879 0
2.26196 -1.46382 0
2.28973 -1.45825 0
2.32154 -1.46165 0
2.34317 -1.46756 0
2.35654 -1.46833 0
2.37824 -1.46199 0
2.41157 -1.457 0
2.44264 -1.46118 0
2.46223 -1.46701 0
2.47709 -1.47024 0
0.0125268 0.173461 0
0.0149729 0.183158 0
0.0591997 0.152596 0
0.0859971 0.145656 0
0.0960966 0.154514 0
0.142947 0.176861 0
0.169022 0.148671 0
0.187191 0.17031 0
0.21834 0.172665 0
0.250301 0.1851 0
0.286474 0.19823 0
0.296349 0.193878 0
0.319308 0.202008 0
0.357873 0.227951 0
0.389494 0.198221 0
0.412485 0.220584 0
1.10868 -0.096553 0
0.436665 -0.749769 0
0.4714 -0.749141 0
0.473377 -0.733919 0
0.510997 -0.739656 0
0.553336 -0.732353 0
0.573658 -0.737792 0
0.595233 -0.74071 0
0.631372 -0.751694 0
0.655003 -0.762821 0
0.642934 -0.769602 0
0.66621 -0.745482 0
0.693141 -0.750437 0
0.739426 -0.74957 0
0.762388 -0.754302 0
0.792547 -0.732544 0
0.81703 -0.739399 0
0.870884 -0.752882 0
0.898746 -0.739914 0
0.921999 -0.75089 0
0.944259 -0.713673 0
0.984218 -0.690624 0
1.0065 -0.861543 0
1.01443 -0.853204 0
1.05272 -0.882478 0
1.04566 -0.909696 0
1.09361 -0.907168 0
1.12049 -0.9441 0
1.15189 -0.951487 0
1.16946 -1.008 0
1.17798 -1.03157 0
1.21951 -1.04176 0
1.22322 -1.05339 0
1.24688 -1.05992 0
1.27773 -1.08126 0
1.28376 -1.1026 0
1.3176 -1.12625 0
1.36342 -1.11332 0
1.37411 -1.11809 0
1.40413 -1.13219 0
1.43078 -1.1706 0
1.44667 -1.18242 0
1.45558 -1.18699 0
1.48285 -1.19394 0
1.51459 -1.21543 0
1.53347 -1.20011 0
1.57584 -1.24511 0
1.61185 -1.25551 0
1.62607 -1.2696 0
1.65321 -1.28423 0
1.68305 -1.2753 0
1.70159 -1.29778 0
1.74544 -1.31104 0
1.76332 -1.315 0
1.79089 -1.28959 0
1.81574 -1.31752 0
1.83717 -1.33491 0
1.84782 -1.3357 0
1.87782 -1.34331 0
1.90845 -1.34876 0
1.92487 -1.35855 0
1.94889 -1.38989 0
1.9786 -1.37818 0
1.99877 -1.38358 0
2.01238 -1.39362 0
2.0424 -1.4208 0
2.07589 -1.42598 0
2.10775 -1.41964 0
2.13177 -1.42212 0
2.14481 -1.42257 0
2.16378 -1.42166 0
2.19826 -1.42533 0
2.22537 -1.43385 0
2.24166 -1.43701 0
2.26288 -1.43999 0
2.29083 -1.43519 0
2.32496 -1.43633 0
2.34527 -1.43884 0
2.35594 -1.43646 0
2.37773 -1.43604 0
2.41151 -1.43861 0
2.44232 -1.44264 0
2.46202 -1.44272 0
2.47637 -1.43753 0
0.0044501 0.213652 0
0.0619493 0.207166 0
0.0596831 0.196095 0
0.0781388 0.179 0
0.135805 0.195964 0
0.121778 0.187201 0
0.1572 0.18821 0
0.174512 0.211535 0
0.191717 0.182582 0
0.220703 0.211102 0
0.27334 0.204288 0
0.312573 0.233375 0
0.33869 0.260819 0
0.366645 0.262416 0
0.394644 0.265162 0
0.396702 0.232648 0
0.423655 0.249178 0
0.427016 -0.741405 0
0.442259 -0.691849 0
0.467598 -0.703061 0
0.543067 -0.496394 0
0.598932 -0.543008 0
0.592297 -0.710289 0
0.623247 -0.713384 0
0.624926 -0.741055 0
0.646345 -0.745998 0
0.664868 -0.716889 0
0.695292 -0.725841 0
0.70855 -0.698928 0
0.737843 -0.716213 0
0.750156 -0.72032 0
0.789232 -0.705078 0
0.809038 -0.701649 0
0.870631 -0.689968 0
0.890849 -0.714377 0
0.944263 -0.694921 0
0.972646 -0.658812 0
0.976751 -0.671704 0
1.51118 -0.608227 0
1.02723 -0.813297 0
1.05652 -0.844429 0
1.06329 -0.883769 0
1.07199 -0.900158 0
1.12716 -0.906448 0
1.16541 -0.915296 0
1.17338 -0.985507 0
1.17729 -1.01549 0
1.19979 -1.00533 0
1.20161 -1.04157 0
1.25778 -1.05033 0
1.26378 -1.06128 0
1.28884 -1.08255 0
1.35493 -1.10059 0
1.34624 -1.09563 0
1.38217 -1.10142 0
1.41274 -1.1249 0
1.44053 -1.12499 0
1.44173 -1.14525 0
1.446 -1.13374 0
1.4931 -1.16198 0
1.50536 -1.192 0
1.55861 -1.18939 0
1.55928 -1.22309 0
1.62342 -1.21187 0
1.64841 -1.25701 0
1.65966 -1.25476 0
1.67512 -1.26065 0
1.70472 -1.26588 0
1.74535 -1.28363 0
1.77121 -1.28419 0
1.78311 -1.283 0
1.81946 -1.29633 0
1.84435 -1.2812 0
1.86775 -1.31264 0
1.8791 -1.31122 0
1.8997 -1.29629 0
1.91745 -1.3382 0
1.96759 -1.37635 0
1.97821 -1.3596 0
1.97667 -1.32064 0
2.00731 -1.34875 0
2.0574 -1.40146 0
2.07567 -1.40374 0
2.11262 -1.39337 0
2.12851 -1.37086 0
2.14413 -1.39749 0
2.16716 -1.41152 0
2.19523 -1.40358 0
2.22263 -1.39921 0
2.24143 -1.40507 0
2.26328 -1.41198 0
2.29586 -1.4176 0
2.32409 -1.41536 0
2.34136 -1.40813 0
2.35974 -1.40051 0
2.37605 -1.41035 0
2.41507 -1.42048 0
2.44439 -1.42336 0
2.45938 -1.41533 0
2.4695 -1.40404 0
</DataArray>
</Points>
<PointData>
<DataArray NumberOfComponents='1' type='Int32' Name='Particle Type' format='ascii'>
0
0
0
0
0
0
0
0
0
0
0
0
0
0
0
0
0
0
0
0
0
0
1
1
1
1
1
1
1
1
1
1
1
1
1
1
1
1
1
1
1
1
1
1
1
1
1
1
1
1
1
1
1
1
1
1
1
1
1
1
1
1
1
1
1
1
1
1
1
1
1
1
1
1
1
1
1
1
1
1
1
1
1
1
1
1
1
1
1
1
1
1
1
1
1
1
1
1
1
1
1
1
1
1
1
1
1
1
1
1
1
1
1
1
1
1
1
1
1
1
1
1
1
1
1
1
1
1
1
1
1
1
1
1
1
1
1
1
1
1
1
1
1
1
1
1
1
1
1
1
1
1
1
1
1
1
1
1
1
1
1
1
1
1
1
1
1
1
1
1
1
1
1
1
1
1
1
1
1
1
1
1
1
1
1
1
1
1
1
1
1
1
1
1
1
1
1
1
1
1
1
1
1
1
1
1
1
1
1
1
1
1
1
1
1
1
1
1
1
1
1
1
1
1
1
1
1
1
1
1
1
1
1
1
1
1
1
1
1
1
1
1
1
1
1
1
1
1
1
1
1
1
1
1
1
1
1
1
1
1
1
1
1
1
1
1
1
1
1
1
1
1
1
1
1
1
1
1
1
1
1
1
1
1
1
1
1
1
1
1
1
1
1
1
1
1
1
1
1
1
1
1
1
1
1
1
1
1
1
1
1
1
1
1
1
1
1
1
1
1
1
1
1
1
1
1
1
1
1
1
1
1
1
1
1
1
1
1
1
1
1
1
1
1
1
1
1
1
1
1
1
1
1
1
1
1
1
1
1
1
1
1
1
1
1
1
1
1
1
1
1
1
1
1
1
1
1
1
1
1
1
1
1
1
1
1
1
1
1
1
1
1
1
1
1
1
1
1
1
1
1
1
1
1
1
1
1
1
1
1
1
1
1
1
1
1
1
1
1
1
1
1
1
1
1
1
1
1
1
1
1
1
1
1
1
1
1
1
1
1
1
1
1
1
1
1
1
1
1
1
1
1
1
1
1
1
1
1
1
1
1
1
1
1
1
1
1
1
1
1
1
1
1
1
1
1
1
1
1
1
1
1
1
1
1
1
1
1
1
1
1
1
1
1
1
1
1
1
1
1
1
1
1
1
1
1
1
1
1
1
1
1
1
1
1
1
1
1
1
1
1
1
1
1
1
1
1
1
1
1
1
1
1
1
1
1
1
1
1
1
1
1
1
1
1
1
1
1
1
1
1
1
1
1
1
1
1
1
1
1
1
1
1
1
1
1
1
1
1
1
1
1
1
1
1
1
1
1
1
1
1
1
1
1
1
1
1
1
1
1
1
1
1
1
1
1
1
1
1
1
1
1
1
1
1
1
1
1
1
1
1
1
1
1
1
1
1
1
1
1
1
1
1
1
1
1
1
1
1
1
1
1
1
1
1
1
1
1
1
1
1
1
1
1
1
1
1
1
1
1
1
1
1
1
1
1
1
1
1
1
1
1
1
1
1
1
1
1
1
1
1
1
1
1
1
1
1
1
1
1
1
1
1
1
1
1
1
1
1
1
1
1
1
1
1
1
1
1
1
1
1
1
1
1
1
1
1
1
1
1
1
1
1
1
1
1
1
1
1
1
1
1
1
1
1
1
1
1
1
1
1
1
1
1
1
1
1
1
1
1
1
1
1
1
1
1
1
1
1
1
1
1
1
1
1
1
1
1
1
1
1
1
1
1
1
1
1
1
1
1
1
1
1
1
1
1
1
1
1
1
1
1
1
1
1
1
1
1
1
1
1
1
1
1
1
1
1
1
1
1
1
1
1
1
1
1
1
1
</DataArray>
<DataArray NumberOfComponents='3' type='Float64' Name='Velocity' format='ascii'>
-0.735997 -0.2641 0
-0.768872 0.338967 0
-1.0952 0.111387 0
-0.620877 0.952867 0
-0.788915 -0.18557 0
-0.524627 -0.330552 0
-1.28465 -0.0832856 0
-0.772271 0.333739 0
-0.248322 -1.16914 0
-0.569497 -1.09535 0
0.192672 -0.588781 0
-0.242944 -0.465911 0
-0.409616 -0.181202 0
0.376891 -0.837306 0
0.0480942 -1.01038 0
-0.425703 -0.836261 0
-0.272176 -0.263387 0
0.0826538 -0.639002 0
-0.855123 -0.261107 0
0.918981 -0.937343 0
0.0245939 -0.7824 0
-0.0083596 -0.175386 0
0.204218 -0.275917 0
0.689287 -0.865253 0
-0.0180371 -1.57678 0
-0.208453 -1.29014 0
-1.35864 0.00742182 0
0.520034 -1.87135 0
0.45207 -1.79197 0
-0.680583 -1.40299 0
-0.0186002 -0.523383 0
-0.613426 -0.24174 0
-0.572326 -1.10391 0
1.00028 -1.02554 0
-0.11201 -0.781765 0
0.759011 -1.31252 0
0.0206875 -0.932742 0
0.525626 -1.6074 0
-0.311036 -0.245351 0
-0.090882 -1.02835 0
-0.0279326 -1.41613 0
-0.66417 -1.46926 0
0.793765 -0.999825 0
-0.511353 -1.09282 0
0.0102028 -0.437159 0
-0.570179 -0.283435 0
0.120554 -0.503559 0
0.251766 -0.0184379 0
0.375235 -0.876932 0
1.61553 -1.21118 0
0.734645 0.193767 0
-0.616966 1.03946 0
-1.35916 -2.03778 0
-1.37545 -1.08627 0
1.18522 0.612156 0
-0.153087 0.922405 0
0.803132 -0.127352 0
-1.15764 -0.774927 0
0.399617 0.0344819 0
-0.52308 -0.862541 0
0.613771 0.192585 0
-0.512335 -0.202969 0
0.452173 -0.270462 0
0.0974394 0.615333 0
-0.420266 -0.580845 0
0.0574685 -1.02437 0
0.443627 -0.214188 0
-0.179841 -1.10263 0
-0.621316 0.317594 0
0.479186 0.175654 0
-0.541486 -1.3166 0
-0.577621 0.342709 0
0.0797535 -0.398953 0
-0.435309 -0.982329 0
0.478883 -1.1222 0
0.53309 -1.00934 0
-0.486174 0.692314 0
0.0412594 -0.368793 0
0.501998 -0.326741 0
-0.627674 -0.439232 0
-0.756755 0.165754 0
0.40766 1.03332 0
0.404389 -0.122235 0
0.589539 -0.990971 0
0.108512 -0.274214 0
-0.647769 0.216088 0
0.227582 0.00516152 0
-0.261519 -0.819528 0
-0.567643 -0.8682 0
0.45288 -0.0220662 0
0.501925 0.582931 0
0.097158 -0.0844549 0
-0.210916 -0.887148 0
-0.500056 -0.284667 0
0.106094 0.29393 0
-0.0946314 -0.129272 0
0.524997 -0.961173 0
0.179258 -0.644739 0
-0.275294 0.157378 0
0.0845991 0.268798 0
0.28593 -0.145539 0
-0.184795 -0.55559 0
-0.370967 -0.594403 0
0.0606705 -0.268222 0
0.508941 -0.0338741 0
0.497433 0.0273986 0
0.0696229 -0.242106 0
-0.228018 -0.531724 0
0.012676 1.05683 0
0.709489 0.480823 0
-1.35805 -1.27876 0
0.133948 -0.606662 0
0.856175 -0.723389 0
0.0369572 -0.65741 0
2.4435 -1.07036 0
-0.65166 -0.206317 0
-0.63995 -0.205873 0
-1.06403 -0.848099 0
0.346713 -0.20206 0
-0.370228 -0.873646 0
0.0695097 -0.454879 0
-0.745779 -0.340955 0
0.457833 -0.852047 0
0.200192 -0.972174 0
-0.790491 -0.709101 0
0.0988533 -1.21744 0
0.0500417 -1.55047 0
0.582417 -0.899017 0
-0.0804873 -0.807075 0
0.23211 -1.58391 0
0.254272 -0.845977 0
0.539103 -1.68913 0
0.305623 -1.29176 0
-0.905554 -1.28279 0
0.331466 -0.996781 0
0.617773 -1.09482 0
0.24587 -0.684612 0
0.562728 -1.36298 0
-0.7431 -0.635351 0
-1.03774 -1.33503 0
-0.164851 -1.41691 0
0.119971 -1.30709 0
-0.319384 -1.06774 0
-0.233258 -0.431518 0
0.378298 -1.55634 0
0.348256 -1.18019 0
0.179659 -1.16405 0
-0.231259 -0.0990541 0
0.446375 -0.321824 0
-0.130964 -0.25068 0
-0.0445505 -1.13863 0
0.734529 1.20523 0
0.204128 0.00252817 0
0.77968 -0.292646 0
-0.742571 -0.870534 0
0.224839 -0.535668 0
0.103636 -0.667327 0
1.33707 0.946955 0
-0.406843 -0.267014 0
-0.464174 0.180949 0
-0.572179 -0.914321 0
0.0721445 0.26197 0
0.371543 0.17112 0
-0.248786 0.539183 0
-0.409242 -0.120241 0
-1.04408 -0.81243 0
-0.632072 -0.367806 0
0.159337 -1.44577 0
-0.267962 -0.558809 0
0.170362 -0.684474 0
0.124728 0.595558 0
-0.45155 -0.0468933 0
0.653511 0.117814 0
0.134971 0.320087 0
0.313388 -0.683724 0
-0.287611 -0.218915 0
0.734164 -0.413224 0
0.506373 -0.434362 0
-0.181257 0.0462791 0
-0.772875 -0.133072 0
0.217341 0.119286 0
0.0844163 -0.547212 0
-0.13019 -0.613126 0
0.162072 0.280808 0
-0.349324 0.00312803 0
0.0541017 -0.892453 0
-0.156448 -0.195229 0
-0.0803602 -0.0968328 0
0.228069 -0.655611 0
0.0890245 0.0664671 0
0.0528049 -0.0900368 0
0.47066 -0.23525 0
-0.404409 -0.217852 0
-0.211677 -0.45318 0
0.126489 0.266504 0
-0.13049 -0.334805 0
0.150195 -0.61626 0
0.171326 -0.384443 0
0.111821 -0.10929 0
-0.0153328 -0.0145543 0
0.0606981 -0.134728 0
0.08407 -0.181089 0
-0.0987256 -0.427034 0
-0.0769919 -0.534662 0
0.208887 -0.135277 0
0.326894 0.1166 0
0.136036 0.0220214 0
-0.188204 -0.3264 0
-0.687616 -0.301178 0
0.175336 -0.165582 0
-0.255154 0.589709 0
-0.275418 -1.17468 0
0.124358 -0.40259 0
-0.115335 0.587016 0
-0.129463 0.647689 0
-0.597017 -0.0802835 0
0.16576 -0.0949305 0
0.621992 -0.252813 0
-0.0267589 0.122281 0
-0.0748818 -0.203853 0
0.335623 -0.00272547 0
-0.485872 -0.565769 0
0.0852941 -0.547246 0
-1.08785 -0.291903 0
1.00182 -0.956578 0
-0.513026 -0.443078 0
-0.205731 -0.839602 0
-0.78388 -1.02874 0
0.308234 -1.74809 0
-0.919398 -0.613727 0
-0.00212149 -1.12898 0
-0.110168 -1.15438 0
-0.145424 -1.31937 0
-0.142198 -1.09869 0
-0.297586 -0.447375 0
-0.230559 -1.42444 0
0.634911 -1.2206 0
1.17213 -1.04814 0
0.524326 -0.391101 0
0.0833704 -1.4523 0
0.138303 -0.593048 0
0.339265 -1.51569 0
0.0888406 -0.623298 0
0.277683 -0.956595 0
0.344438 -1.60684 0
0.704979 -0.446395 0
-0.805433 -1.40196 0
-0.664405 -0.360418 0
-0.480132 -0.088294 0
0.0501514 0.257083 0
-0.786256 -0.67037 0
-0.119969 -0.583081 0
0.222003 -0.00128186 0
-1.03036 -0.506826 0
-0.179802 -0.590394 0
0.166185 -0.734481 0
0.176183 -0.472395 0
1.1114 -0.802187 0
0.0519633 -0.519531 0
1.37874 0.259298 0
0.677323 -0.844049 0
-0.149806 0.456836 0
-0.137464 -1.67743 0
-0.411046 0.806366 0
0.0238891 0.224329 0
0.055107 -0.273334 0
0.474296 -0.530493 0
0.0973794 -0.831216 0
-0.142406 -1.47218 0
0.517125 -0.398862 0
0.828398 -0.607009 0
0.160369 0.112351 0
-0.218675 -0.953234 0
0.456562 -0.722719 0
-0.592472 -0.43439 0
-0.0607584 0.596417 0
0.7931 0.250032 0
0.439742 -0.684402 0
0.00938438 -0.0937732 0
-0.586221 0.530034 0
-0.246123 -1.39881 0
0.127722 -0.17933 0
0.545098 0.327045 0
-0.321954 -0.110045 0
-0.348323 0.462762 0
0.132314 -0.804017 0
0.710581 -1.05338 0
-0.198546 0.176205 0
-0.37313 0.180312 0
0.0923522 -0.72788 0
0.0318898 -0.450034 0
-0.345616 0.323565 0
0.397213 -0.257531 0
0.273197 -0.202413 0
-0.587612 -0.361067 0
-0.144688 -0.363353 0
0.382047 -0.324184 0
0.291691 -0.0144287 0
-0.0631277 -0.254554 0
-0.0956008 -0.544858 0
0.119943 -0.0779718 0
0.254768 0.108502 0
0.0774907 -0.179344 0
-0.182485 -0.522075 0
-0.0461551 -0.251922 0
0.216838 0.134262 0
0.177712 0.0794503 0
-0.12804 -0.200512 0
0.526504 1.49526 0
-1.22932 -1.30535 0
-0.0556685 0.145987 0
0.502458 0.15142 0
-0.376291 0.480428 0
0.66915 -1.05553 0
-0.421039 0.118857 0
-0.432572 0.92376 0
-0.959395 -0.552918 0
0.0399661 -0.819485 0
-0.511605 -0.846016 0
0.387852 0.0580973 0
-0.117872 -0.184809 0
-0.055855 -0.334601 0
0.47995 0.157121 0
-0.212193 -0.921437 0
-0.0398918 -0.273266 0
0.192089 -0.28335 0
0.356549 -1.24427 0
-0.459284 -1.45923 0
0.244566 -1.77488 0
0.432983 0.0422872 0
0.0461055 -0.169634 0
0.116509 -1.20147 0
-0.564404 -1.04759 0
-1.35563 -1.38391 0
-0.435644 -1.46316 0
-0.302426 -0.755688 0
-0.343044 -1.15003 0
1.18146 -0.531383 0
-0.338612 -0.3148 0
0.841464 -0.117617 0
-0.0898218 -0.583892 0
-0.189704 -0.637133 0
0.191675 -1.54007 0
1.89821 -1.69269 0
-0.663431 -0.882926 0
1.11287 -2.15178 0
-0.628845 -1.1076 0
-0.235299 -1.6446 0
1.26432 0.0480659 0
0.220066 -0.0840236 0
0.45297 -0.772083 0
0.00733754 -0.329222 0
-0.237979 0.314157 0
-0.0829245 -0.123946 0
-0.44977 -0.470189 0
-0.0881607 0.0198992 0
0.363817 -0.762305 0
-0.516163 -0.0976108 0
-0.511862 0.289198 0
-0.929259 0.506252 0
-0.163649 -1.28238 0
0.00178539 -1.0063 0
0.652614 -1.32143 0
0.40989 -0.552285 0
0.862002 -0.12175 0
-0.388224 0.779739 0
-0.505947 -0.576799 0
-0.890449 -0.0263971 0
0.105842 -0.312994 0
-0.327146 0.0530439 0
-0.42598 0.0490168 0
-0.560943 0.227423 0
-0.710163 -0.909476 0
-0.287192 -1.02133 0
-0.415073 -0.747102 0
0.500467 -0.534828 0
-0.676282 -0.012766 0
-0.795971 -0.271041 0
0.755138 -0.766598 0
0.46709 1.40983 0
-0.233716 0.141286 0
0.302267 -1.4899 0
-0.0183236 0.0910856 0
-0.566018 0.770619 0
0.509217 -0.194205 0
0.220198 -1.28159 0
-0.210706 -0.558212 0
0.197494 0.542822 0
0.0805039 0.498961 0
-0.355988 -0.680176 0
-0.257719 -0.886326 0
0.411517 0.0787859 0
0.277072 0.489103 0
-0.372439 -0.463417 0
-0.307734 -0.953783 0
0.00644809 -0.102896 0
0.194945 0.154676 0
0.350966 -0.152703 0
0.126667 -0.588111 0
-0.21616 -0.534384 0
-0.0745698 -0.113592 0
0.357125 0.192247 0
0.272517 0.0334233 0
-0.179324 -0.438745 0
-0.18079 -0.37995 0
0.144715 -0.0170168 0
0.206454 -0.0208888 0
-0.0462157 -0.422724 0
0.516122 -0.842868 0
0.284118 1.11022 0
0.279902 -0.773705 0
0.646832 -0.0773889 0
-0.237533 0.691303 0
-0.707815 -0.0508393 0
1.15583 -0.127675 0
0.108623 -0.883789 0
-0.39621 -0.627629 0
0.725007 -0.64404 0
0.474707 -0.183989 0
-0.00555297 -0.349181 0
0.277441 -1.10687 0
-0.958615 -0.35479 0
-0.131305 -0.930174 0
-0.200502 -1.21914 0
0.152171 -0.703547 0
-0.279669 -1.31559 0
0.11573 -0.173196 0
0.3544 -0.714274 0
-1.54513 -1.2261 0
-0.311506 -0.454388 0
0.712057 -0.223943 0
0.65683 -0.280791 0
0.237441 -0.826565 0
-0.121418 -0.65057 0
-0.136513 -0.952203 0
-0.320368 -0.916215 0
-0.0778625 -1.05446 0
0.0309509 0.126449 0
0.0643206 -1.66134 0
-0.609471 -0.945321 0
-0.478159 -0.890905 0
-0.367659 -0.400884 0
-0.592449 -1.29889 0
0.0610542 -1.24875 0
0.167953 -1.1255 0
-0.434796 -0.976662 0
-0.0378886 -0.604703 0
-0.649652 -0.957947 0
-0.00431777 0.635488 0
-0.659849 0.863694 0
0.633404 0.0654878 0
-0.288201 -1.08819 0
0.457553 -0.454214 0
0.337717 -1.11021 0
-0.315531 0.0453817 0
-0.707965 0.406039 0
0.0886486 -0.652827 0
0.42197 -0.42641 0
-0.685964 -0.222325 0
-0.343002 0.166513 0
0.768004 -0.71471 0
0.329179 -0.221651 0
-0.64594 -0.201433 0
0.949638 -0.556478 0
0.156782 0.435017 0
0.832825 -0.0384918 0
-0.755811 -1.07351 0
-0.238329 -0.106362 0
-0.798891 -0.233073 0
0.689157 0.0124543 0
-0.224208 0.339886 0
0.175614 -0.137648 0
0.561045 0.989717 0
-0.125567 -0.815675 0
-0.200726 -0.804029 0
-1.19564 -0.21626 0
0.623356 -0.465473 0
0.481974 -0.586747 0
-0.391766 -0.731069 0
0.328961 -0.0430386 0
-0.259753 0.392413 0
0.109562 -0.241411 0
-0.209633 -0.507596 0
-0.609385 0.839074 0
0.143109 -0.556585 0
0.755496 -0.877213 0
-0.225057 -0.338187 0
-0.26422 0.485814 0
0.290566 0.26066 0
0.0283549 -1.16724 0
-0.313244 -0.560396 0
0.188461 0.317911 0
0.209904 0.158251 0
-0.288069 -0.648895 0
-0.273687 -0.684538 0
0.0473224 -0.010565 0
0.221461 0.256923 0
0.317152 -0.0959894 0
0.116741 -0.722274 0
-0.238305 -0.687691 0
-0.157992 -0.0292786 0
0.279419 0.358815 0
0.370153 -0.0252531 0
-0.0332514 -0.527039 0
-0.185814 -0.383955 0
0.117688 -0.128314 0
0.251215 -0.244425 0
0.0243223 -0.635695 0
-0.574817 0.480125 0
-0.975522 1.01294 0
-0.156927 -0.842754 0
-0.0823076 -0.233011 0
-0.162203 -0.284427 0
0.0713524 -0.514181 0
0.546168 -0.400095 0
-0.104552 0.664627 0
0.547985 -0.443651 0
-0.0354667 -0.383381 0
-0.209279 -0.309303 0
-1.08689 -0.588362 0
-0.141222 -0.207656 0
0.67272 -0.0262356 0
0.0476812 0.0762711 0
0.332352 -0.920502 0
-0.0102495 -0.901455 0
-1.26298 -0.571254 0
0.0734752 -1.43771 0
0.498108 -0.471222 0
0.39008 -0.839989 0
-0.538013 -1.52518 0
0.872834 -0.574924 0
-0.344015 -2.45932 0
-0.89187 -1.387 0
-0.647088 -1.55961 0
-0.155572 -0.946642 0
-0.299248 -0.624581 0
-0.15643 -0.167752 0
0.355292 -0.397453 0
-0.448534 -1.51463 0
0.314973 -0.710232 0
0.395784 0.368492 0
-0.590172 -0.925734 0
-0.565671 -1.68798 0
-1.12189 -0.498034 0
1.06563 -0.0968526 0
-0.820807 -0.590584 0
-0.0488365 -0.226964 0
-0.141241 -0.65821 0
-0.787899 -0.0728908 0
0.900634 0.976791 0
0.141129 -0.122427 0
-0.0538393 -0.750947 0
0.793968 -0.0325189 0
0.163625 -0.00777932 0
-0.7364 -0.331534 0
0.354001 -0.776001 0
-0.212759 -0.297679 0
0.544362 -0.429299 0
1.26099 0.315708 0
-0.0261602 -0.853186 0
0.153156 -1.22495 0
0.184941 -0.532199 0
-0.488781 0.917785 0
-0.632541 -1.43442 0