<?xml version='1.0' encoding='UTF-8'?>
<VTKFile byte_order='LittleEndian' version='0.1' type = 'UnstructuredGrid'>
<UnstructuredGrid>
<FieldData>
<DataArray type='Float64' Name='Time' NumberOfComponents='1' NumberOfTuples='1' format='ascii'>
0.48
</DataArray>
</FieldData>
<Piece NumberOfCells='808' NumberOfPoints='808'>
<Points>
<DataArray NumberOfComponents='3' type='Float64' Name='position' format='ascii'>
0 0 0
0 0.025 0
0 0.05 0
0 0.075 0
0 0.1 0
0 0.125 0
0 0.15 0
0 0.175 0
0.025 0 0
0.05 0 0
0.075 0 0
0.1 0 0
0.125 0 0
0.15 0 0
0.175 0 0
0.2 0 0
0.225 0 0
0.25 0 0
0.275 0 0
0.3 0 0
0.325 0 0
0.35 0 0
0.376212 -0.00803785 0
0.401257 -0.0120487 0
0.426228 -0.0148685 0
0.451133 -0.0169497 0
0.476025 -0.0185319 0
0.50089 -0.0197766 0
0.525747 -0.0207214 0
0.550624 -0.0214288 0
0.575511 -0.0219797 0
0.600393 -0.0223954 0
0.625277 -0.0226687 0
0.650177 -0.0228163 0
0.675104 -0.0228795 0
0.700056 -0.0228992 0
0.725028 -0.0229019 0
0.750013 -0.0229001 0
0.775005 -0.0228983 0
0.800002 -0.0228971 0
0.825001 -0.0228966 0
0.85 -0.0228963 0
0.875 -0.0228962 0
0.9 -0.0228962 0
0.925 -0.0228962 0
0.95 -0.0228962 0
0.975 -0.0228962 0
1 -0.0228962 0
1.025 -0.0228962 0
1.05 -0.0228962 0
1.075 -0.0228962 0
1.1 -0.0228962 0
1.125 -0.0228962 0
1.15 -0.0228962 0
1.175 -0.0228962 0
1.2 -0.0228962 0
1.225 -0.0228962 0
1.25 -0.0228962 0
1.275 -0.0228962 0
1.3 -0.0228962 0
1.325 -0.0228962 0
1.35 -0.0228962 0
1.375 -0.0228962 0
1.4 -0.0228962 0
1.425 -0.0228962 0
1.45 -0.0228962 0
1.475 -0.0228962 0
1.5 -0.0228962 0
1.525 -0.0228962 0
1.55 -0.0228962 0
1.575 -0.0228962 0
1.6 -0.0228962 0
1.625 -0.0228962 0
1.65 -0.0228962 0
1.675 -0.0228962 0
1.7 -0.0228962 0
1.725 -0.0228962 0
1.75 -0.0228962 0
1.775 -0.0228962 0
1.8 -0.0228962 0
1.825 -0.0228962 0
1.85 -0.0228962 0
1.875 -0.0228962 0
1.9 -0.0228962 0
1.925 -0.0228962 0
1.95 -0.0228962 0
1.975 -0.0228962 0
2 -0.0228962 0
2.025 -0.0228962 0
2.05 -0.0228962 0
2.075 -0.0228962 0
2.1 -0.0228962 0
2.125 -0.0228962 0
2.15 -0.0228962 0
2.175 -0.0228962 0
2.2 -0.0228962 0
2.225 -0.0228962 0
2.25 -0.0228962 0
2.275 -0.0228962 0
2.3 -0.0228962 0
2.325 -0.0228962 0
2.35 -0.0228962 0
2.375 -0.0228962 0
2.4 -0.0228962 0
2.425 -0.0228962 0
2.45 -0.0228962 0
2.475 -0.0228962 0
2.5 -0.0228962 0
0.0248958 0.0245885 0
0.0498512 0.0243406 0
0.0748194 0.0241542 0
0.0998014 0.0239692 0
0.124788 0.0238055 0
0.149772 0.0236518 0
0.174773 0.0234501 0
0.199794 0.0232312 0
0.224822 0.0230069 0
0.249862 0.022731 0
0.274938 0.0223536 0
0.300077 0.0218153 0
0.325348 0.02092 0
0.350894 0.0190668 0
0.376338 0.0155528 0
0.401336 0.012416 0
0.426269 0.00992618 0
0.451157 0.00797528 0
0.476032 0.00644775 0
0.500895 0.00523802 0
0.525755 0.00430294 0
0.550628 0.00359392 0
0.575511 0.00304887 0
0.600395 0.00264149 0
0.625283 0.00236875 0
0.650186 0.00221353 0
0.675111 0.00214018 0
0.700061 0.00211203 0
0.725031 0.00210383 0
0.750015 0.00210251 0
0.775006 0.00210287 0
0.800003 0.00210333 0
0.825001 0.0021036 0
0.85 0.00210372 0
0.875 0.00210377 0
0.9 0.00210379 0
0.925 0.0021038 0
0.95 0.0021038 0
0.975 0.0021038 0
1 0.0021038 0
1.025 0.0021038 0
1.05 0.0021038 0
1.075 0.0021038 0
1.1 0.0021038 0
1.125 0.0021038 0
1.15 0.0021038 0
1.175 0.0021038 0
1.2 0.0021038 0
1.225 0.0021038 0
1.25 0.0021038 0
1.275 0.0021038 0
1.3 0.0021038 0
1.325 0.0021038 0
1.35 0.0021038 0
1.375 0.0021038 0
1.4 0.0021038 0
1.425 0.0021038 0
1.45 0.0021038 0
1.475 0.0021038 0
1.5 0.0021038 0
1.525 0.0021038 0
1.55 0.0021038 0
1.575 0.0021038 0
1.6 0.0021038 0
1.625 0.0021038 0
1.65 0.0021038 0
1.675 0.0021038 0
1.7 0.0021038 0
1.725 0.0021038 0
1.75 0.0021038 0
1.775 0.0021038 0
1.8 0.0021038 0
1.825 0.0021038 0
1.85 0.0021038 0
1.875 0.0021038 0
1.9 0.0021038 0
1.925 0.0021038 0
1.95 0.0021038 0
1.975 0.0021038 0
2 0.0021038 0
2.025 0.0021038 0
2.05 0.0021038 0
2.075 0.0021038 0
2.1 0.0021038 0
2.125 0.0021038 0
2.15 0.0021038 0
2.175 0.0021038 0
2.2 0.0021038 0
2.225 0.0021038 0
2.25 0.0021038 0
2.275 0.0021038 0
2.3 0.0021038 0
2.325 0.0021038 0
2.35 0.0021038 0
2.375 0.0021038 0
2.4 0.0021038 0
2.425 0.0021038 0
2.45 0.0021038 0
2.475 0.0021038 0
2.5 0.0021038 0
0.0248574 0.049369 0
0.0497847 0.0489619 0
0.0747301 0.0486592 0
0.0996994 0.0483437 0
0.124676 0.0480695 0
0.149657 0.0478072 0
0.174667 0.0474637 0
0.199706 0.0470942 0
0.224759 0.0467105 0
0.249843 0.0462352 0
0.274992 0.0456026 0
0.300228 0.0447518 0
0.325574 0.0435534 0
0.351014 0.0417393 0
0.376313 0.0392403 0
0.401354 0.0367717 0
0.426286 0.0346146 0
0.451166 0.0328234 0
0.476034 0.0313758 0
0.500896 0.0302086 0
0.525758 0.0292925 0
0.550629 0.0285914 0
0.575509 0.0280552 0
0.600395 0.0276575 0
0.625286 0.0273892 0
0.650191 0.0272321 0
0.675116 0.0271534 0
0.700065 0.02712 0
0.725033 0.027108 0
0.750016 0.0271045 0
0.775007 0.0271037 0
0.800003 0.0271037 0
0.825001 0.0271037 0
0.85 0.0271038 0
0.875 0.0271038 0
0.9 0.0271038 0
0.925 0.0271038 0
0.95 0.0271038 0
0.975 0.0271038 0
1 0.0271038 0
1.025 0.0271038 0
1.05 0.0271038 0
1.075 0.0271038 0
1.1 0.0271038 0
1.125 0.0271038 0
1.15 0.0271038 0
1.175 0.0271038 0
1.2 0.0271038 0
1.225 0.0271038 0
1.25 0.0271038 0
1.275 0.0271038 0
1.3 0.0271038 0
1.325 0.0271038 0
1.35 0.0271038 0
1.375 0.0271038 0
1.4 0.0271038 0
1.425 0.0271038 0
1.45 0.0271038 0
1.475 0.0271038 0
1.5 0.0271038 0
1.525 0.0271038 0
1.55 0.0271038 0
1.575 0.0271038 0
1.6 0.0271038 0
1.625 0.0271038 0
1.65 0.0271038 0
1.675 0.0271038 0
1.7 0.0271038 0
1.725 0.0271038 0
1.75 0.0271038 0
1.775 0.0271038 0
1.8 0.0271038 0
1.825 0.0271038 0
1.85 0.0271038 0
1.875 0.0271038 0
1.9 0.0271038 0
1.925 0.0271038 0
1.95 0.0271038 0
1.975 0.0271038 0
2 0.0271038 0
2.025 0.0271038 0
2.05 0.0271038 0
2.075 0.0271038 0
2.1 0.0271038 0
2.125 0.0271038 0
2.15 0.0271038 0
2.175 0.0271038 0
2.2 0.0271038 0
2.225 0.0271038 0
2.25 0.0271038 0
2.275 0.0271038 0
2.3 0.0271038 0
2.325 0.0271038 0
2.35 0.0271038 0
2.375 0.0271038 0
2.4 0.0271038 0
2.425 0.0271038 0
2.45 0.0271038 0
2.475 0.0271038 0
2.5 0.0271038 0
0.0248396 0.0742236 0
0.0497508 0.0737126 0
0.0746885 0.0732992 0
0.0996456 0.0728682 0
0.124612 0.0725032 0
0.149602 0.0721404 0
0.174628 0.0716764 0
0.199678 0.0711825 0
0.224752 0.0706559 0
0.249875 0.0699985 0
0.275077 0.0691586 0
0.300358 0.06811 0
0.325693 0.0667913 0
0.351026 0.0651282 0
0.376248 0.063147 0
0.401307 0.0611243 0
0.426255 0.0592503 0
0.451147 0.0576316 0
0.476022 0.0562726 0
0.500888 0.0551509 0
0.525751 0.0542596 0
0.550622 0.053571 0
0.575504 0.0530447 0
0.600392 0.0526572 0
0.625285 0.0523966 0
0.650191 0.0522419 0
0.675117 0.0521619 0
0.700065 0.0521257 0
0.725034 0.0521112 0
0.750016 0.0521061 0
0.775007 0.0521045 0
0.800003 0.052104 0
0.825001 0.0521038 0
0.85 0.0521038 0
0.875 0.0521038 0
0.9 0.0521038 0
0.925 0.0521038 0
0.95 0.0521038 0
0.975 0.0521038 0
1 0.0521038 0
1.025 0.0521038 0
1.05 0.0521038 0
1.075 0.0521038 0
1.1 0.0521038 0
1.125 0.0521038 0
1.15 0.0521038 0
1.175 0.0521038 0
1.2 0.0521038 0
1.225 0.0521038 0
1.25 0.0521038 0
1.275 0.0521038 0
1.3 0.0521038 0
1.325 0.0521038 0
1.35 0.0521038 0
1.375 0.0521038 0
1.4 0.0521038 0
1.425 0.0521038 0
1.45 0.0521038 0
1.475 0.0521038 0
1.5 0.0521038 0
1.525 0.0521038 0
1.55 0.0521038 0
1.575 0.0521038 0
1.6 0.0521038 0
1.625 0.0521038 0
1.65 0.0521038 0
1.675 0.0521038 0
1.7 0.0521038 0
1.725 0.0521038 0
1.75 0.0521038 0
1.775 0.0521038 0
1.8 0.0521038 0
1.825 0.0521038 0
1.85 0.0521038 0
1.875 0.0521038 0
1.9 0.0521038 0
1.925 0.0521038 0
1.95 0.0521038 0
1.975 0.0521038 0
2 0.0521038 0
2.025 0.0521038 0
2.05 0.0521038 0
2.075 0.0521038 0
2.1 0.0521038 0
2.125 0.0521038 0
2.15 0.0521038 0
2.175 0.0521038 0
2.2 0.0521038 0
2.225 0.0521038 0
2.25 0.0521038 0
2.275 0.0521038 0
2.3 0.0521038 0
2.325 0.0521038 0
2.35 0.0521038 0
2.375 0.0521038 0
2.4 0.0521038 0
2.425 0.0521038 0
2.45 0.0521038 0
2.475 0.0521038 0
2.5 0.0521038 0
0.0248338 0.0990891 0
0.049743 0.0984626 0
0.0746761 0.0979386 0
0.0996175 0.0974335 0
0.12458 0.0969944 0
0.149587 0.0965361 0
0.174628 0.0959807 0
0.199685 0.0953972 0
0.224778 0.0947516 0
0.249935 0.0939386 0
0.275166 0.09294 0
0.300451 0.0917839 0
0.325749 0.0904581 0
0.351009 0.0889394 0
0.376177 0.0872603 0
0.401234 0.0855408 0
0.4262 0.0839081 0
0.451115 0.0824407 0
0.476003 0.0811616 0
0.500873 0.0800862 0
0.525738 0.0792207 0
0.550612 0.0785435 0
0.575496 0.0780249 0
0.600384 0.0776472 0
0.625278 0.0773956 0
0.650185 0.0772459 0
0.675113 0.0771669 0
0.700063 0.0771296 0
0.725032 0.0771136 0
0.750015 0.0771074 0
0.775007 0.077105 0
0.800003 0.0771042 0
0.825001 0.0771039 0
0.85 0.0771038 0
0.875 0.0771038 0
0.9 0.0771038 0
0.925 0.0771038 0
0.95 0.0771038 0
0.975 0.0771038 0
1 0.0771038 0
1.025 0.0771038 0
1.05 0.0771038 0
1.075 0.0771038 0
1.1 0.0771038 0
1.125 0.0771038 0
1.15 0.0771038 0
1.175 0.0771038 0
1.2 0.0771038 0
1.225 0.0771038 0
1.25 0.0771038 0
1.275 0.0771038 0
1.3 0.0771038 0
1.325 0.0771038 0
1.35 0.0771038 0
1.375 0.0771038 0
1.4 0.0771038 0
1.425 0.0771038 0
1.45 0.0771038 0
1.475 0.0771038 0
1.5 0.0771038 0
1.525 0.0771038 0
1.55 0.0771038 0
1.575 0.0771038 0
1.6 0.0771038 0
1.625 0.0771038 0
1.65 0.0771038 0
1.675 0.0771038 0
1.7 0.0771038 0
1.725 0.0771038 0
1.75 0.0771038 0
1.775 0.0771038 0
1.8 0.0771038 0
1.825 0.0771038 0
1.85 0.0771038 0
1.875 0.0771038 0
1.9 0.0771038 0
1.925 0.0771038 0
1.95 0.0771038 0
1.975 0.0771038 0
2 0.0771038 0
2.025 0.0771038 0
2.05 0.0771038 0
2.075 0.0771038 0
2.1 0.0771038 0
2.125 0.0771038 0
2.15 0.0771038 0
2.175 0.0771038 0
2.2 0.0771038 0
2.225 0.0771038 0
2.25 0.0771038 0
2.275 0.0771038 0
2.3 0.0771038 0
2.325 0.0771038 0
2.35 0.0771038 0
2.375 0.0771038 0
2.4 0.0771038 0
2.425 0.0771038 0
2.45 0.0771038 0
2.475 0.0771038 0
2.5 0.0771038 0
0.0248378 0.123964 0
0.049742 0.123243 0
0.0746665 0.122635 0
0.0996062 0.122082 0
0.124575 0.121574 0
0.149593 0.121027 0
0.174638 0.12041 0
0.199698 0.119772 0
0.224809 0.119034 0
0.249998 0.1181 0
0.275249 0.116988 0
0.300522 0.115773 0
0.325778 0.114474 0
0.350984 0.113077 0
0.376116 0.111595 0
0.401166 0.110085 0
0.426148 0.108623 0
0.451081 0.107268 0
0.475978 0.106061 0
0.500854 0.105032 0
0.525726 0.10419 0
0.550605 0.103519 0
0.575488 0.103005 0
0.600374 0.102635 0
0.625266 0.102392 0
0.650174 0.102248 0
0.675104 0.10217 0
0.700057 0.102132 0
0.725029 0.102115 0
0.750014 0.102108 0
0.775006 0.102105 0
0.800003 0.102104 0
0.825001 0.102104 0
0.85 0.102104 0
0.875 0.102104 0
0.9 0.102104 0
0.925 0.102104 0
0.95 0.102104 0
0.975 0.102104 0
1 0.102104 0
1.025 0.102104 0
1.05 0.102104 0
1.075 0.102104 0
1.1 0.102104 0
1.125 0.102104 0
1.15 0.102104 0
1.175 0.102104 0
1.2 0.102104 0
1.225 0.102104 0
1.25 0.102104 0
1.275 0.102104 0
1.3 0.102104 0
1.325 0.102104 0
1.35 0.102104 0
1.375 0.102104 0
1.4 0.102104 0
1.425 0.102104 0
1.45 0.102104 0
1.475 0.102104 0
1.5 0.102104 0
1.525 0.102104 0
1.55 0.102104 0
1.575 0.102104 0
1.6 0.102104 0
1.625 0.102104 0
1.65 0.102104 0
1.675 0.102104 0
1.7 0.102104 0
1.725 0.102104 0
1.75 0.102104 0
1.775 0.102104 0
1.8 0.102104 0
1.825 0.102104 0
1.85 0.102104 0
1.875 0.102104 0
1.9 0.102104 0
1.925 0.102104 0
1.95 0.102104 0
1.975 0.102104 0
2 0.102104 0
2.025 0.102104 0
2.05 0.102104 0
2.075 0.102104 0
2.1 0.102104 0
2.125 0.102104 0
2.15 0.102104 0
2.175 0.102104 0
2.2 0.102104 0
2.225 0.102104 0
2.25 0.102104 0
2.275 0.102104 0
2.3 0.102104 0
2.325 0.102104 0
2.35 0.102104 0
2.375 0.102104 0
2.4 0.102104 0
2.425 0.102104 0
2.45 0.102104 0
2.475 0.102104 0
2.5 0.102104 0
0.0248367 0.1489 0
0.0497408 0.148134 0
0.0746718 0.147457 0
0.099625 0.146848 0
0.124594 0.146283 0
0.149605 0.145661 0
0.174641 0.145007 0
0.1997 0.144342 0
0.224825 0.14354 0
0.250039 0.142518 0
0.275305 0.141339 0
0.30057 0.140099 0
0.325794 0.138828 0
0.350963 0.13751 0
0.376068 0.136141 0
0.40111 0.134751 0
0.426097 0.133395 0
0.451039 0.132124 0
0.475948 0.130983 0
0.500838 0.129996 0
0.525723 0.129171 0
0.550606 0.128505 0
0.575485 0.127994 0
0.600364 0.127629 0
0.625252 0.127391 0
0.650161 0.12725 0
0.675094 0.127173 0
0.700051 0.127135 0
0.725025 0.127117 0
0.750012 0.127109 0
0.775005 0.127106 0
0.800002 0.127105 0
0.825001 0.127104 0
0.85 0.127104 0
0.875 0.127104 0
0.9 0.127104 0
0.925 0.127104 0
0.95 0.127104 0
0.975 0.127104 0
1 0.127104 0
1.025 0.127104 0
1.05 0.127104 0
1.075 0.127104 0
1.1 0.127104 0
1.125 0.127104 0
1.15 0.127104 0
1.175 0.127104 0
1.2 0.127104 0
1.225 0.127104 0
1.25 0.127104 0
1.275 0.127104 0
1.3 0.127104 0
1.325 0.127104 0
1.35 0.127104 0
1.375 0.127104 0
1.4 0.127104 0
1.425 0.127104 0
1.45 0.127104 0
1.475 0.127104 0
1.5 0.127104 0
1.525 0.127104 0
1.55 0.127104 0
1.575 0.127104 0
1.6 0.127104 0
1.625 0.127104 0
1.65 0.127104 0
1.675 0.127104 0
1.7 0.127104 0
1.725 0.127104 0
1.75 0.127104 0
1.775 0.127104 0
1.8 0.127104 0
1.825 0.127104 0
1.85 0.127104 0
1.875 0.127104 0
1.9 0.127104 0
1.925 0.127104 0
1.95 0.127104 0
1.975 0.127104 0
2 0.127104 0
2.025 0.127104 0
2.05 0.127104 0
2.075 0.127104 0
2.1 0.127104 0
2.125 0.127104 0
2.15 0.127104 0
2.175 0.127104 0
2.2 0.127104 0
2.225 0.127104 0
2.25 0.127104 0
2.275 0.127104 0
2.3 0.127104 0
2.325 0.127104 0
2.35 0.127104 0
2.375 0.127104 0
2.4 0.127104 0
2.425 0.127104 0
2.45 0.127104 0
2.475 0.127104 0
2.5 0.127104 0
0.02483 0.173876 0
0.0497469 0.173091 0
0.074701 0.172356 0
0.0996669 0.171697 0
0.124615 0.171105 0
0.14961 0.170423 0
0.174636 0.169747 0
0.199685 0.169077 0
0.224817 0.168228 0
0.25005 0.167141 0
0.27533 0.165926 0
0.300591 0.164689 0
0.325799 0.163447 0
0.350945 0.162176 0
0.376033 0.160865 0
0.401065 0.159538 0
0.42605 0.158242 0
0.450997 0.157029 0
0.47592 0.155935 0
0.50083 0.154979 0
0.525729 0.154168 0
0.550613 0.153507 0
0.575485 0.153 0
0.600355 0.152638 0
0.625238 0.152402 0
0.650147 0.152259 0
0.675083 0.15218 0
0.700043 0.152139 0
0.725021 0.152119 0
0.75001 0.15211 0
0.775004 0.152106 0
0.800002 0.152105 0
0.825001 0.152104 0
0.85 0.152104 0
0.875 0.152104 0
0.9 0.152104 0
0.925 0.152104 0
0.95 0.152104 0
0.975 0.152104 0
1 0.152104 0
1.025 0.152104 0
1.05 0.152104 0
1.075 0.152104 0
1.1 0.152104 0
1.125 0.152104 0
1.15 0.152104 0
1.175 0.152104 0
1.2 0.152104 0
1.225 0.152104 0
1.25 0.152104 0
1.275 0.152104 0
1.3 0.152104 0
1.325 0.152104 0
1.35 0.152104 0
1.375 0.152104 0
1.4 0.152104 0
1.425 0.152104 0
1.45 0.152104 0
1.475 0.152104 0
1.5 0.152104 0
1.525 0.152104 0
1.55 0.152104 0
1.575 0.152104 0
1.6 0.152104 0
1.625 0.152104 0
1.65 0.152104 0
1.675 0.152104 0
1.7 0.152104 0
1.725 0.152104 0
1.75 0.152104 0
1.775 0.152104 0
1.8 0.152104 0
1.825 0.152104 0
1.85 0.152104 0
1.875 0.152104 0
1.9 0.152104 0
1.925 0.152104 0
1.95 0.152104 0
1.975 0.152104 0
2 0.152104 0
2.025 0.152104 0
2.05 0.152104 0
2.075 0.152104 0
2.1 0.152104 0
2.125 0.152104 0
2.15 0.152104 0
2.175 0.152104 0
2.2 0.152104 0
2.225 0.152104 0
2.25 0.152104 0
2.275 0.152104 0
2.3 0.152104 0
2.325 0.152104 0
2.35 0.152104 0
2.375 0.152104 0
2.4 0.152104 0
2.425 0.152104 0
2.45 0.152104 0
2.475 0.152104 0
2.5 0.152104 0
</DataArray>
</Points>
<PointData>
<DataArray NumberOfComponents='1' type='Int32' Name='Particle Type' format='ascii'>
0
0
0
0
0
0
0
0
0
0
0
0
0
0
0
0
0
0
0
0
0
0
1
1
1
1
1
1
1
1
1
1
1
1
1
1
1
1
1
1
1
1
1
1
1
1
1
1
1
1
1
1
1
1
1
1
1
1
1
1
1
1
1
1
1
1
1
1
1
1
1
1
1
1
1
1
1
1
1
1
1
1
1
1
1
1
1
1
1
1
1
1
1
1
1
1
1
1
1
1
1
1
1
1
1
1
1
1
1
1
1
1
1
1
1
1
1
1
1
1
1
1
1
1
1
1
1
1
1
1
1
1
1
1
1
1
1
1
1
1
1
1
1
1
1
1
1
1
1
1
1
1
1
1
1
1
1
1
1
1
1
1
1
1
1
1
1
1
1
1
1
1
1
1
1
1
1
1
1
1
1
1
1
1
1
1
1
1
1
1
1
1
1
1
1
1
1
1
1
1
1
1
1
1
1
1
1
1
1
1
1
1
1
1
1
1
1
1
1
1
1
1
1
1
1
1
1
1
1
1
1
1
1
1
1
1
1
1
1
1
1
1
1
1
1
1
1
1
1
1
1
1
1
1
1
1
1
1
1
1
1
1
1
1
1
1
1
1
1
1
1
1
1
1
1
1
1
1
1
1
1
1
1
1
1
1
1
1
1
1
1
1
1
1
1
1
1
1
1
1
1
1
1
1
1
1
1
1
1
1
1
1
1
1
1
1
1
1
1
1
1
1
1
1
1
1
1
1
1
1
1
1
1
1
1
1
1
1
1
1
1
1
1
1
1
1
1
1
1
1
1
1
1
1
1
1
1
1
1
1
1
1
1
1
1
1
1
1
1
1
1
1
1
1
1
1
1
1
1
1
1
1
1
1
1
1
1
1
1
1
1
1
1
1
1
1
1
1
1
1
1
1
1
1
1
1
1
1
1
1
1
1
1
1
1
1
1
1
1
1
1
1
1
1
1
1
1
1
1
1
1
1
1
1
1
1
1
1
1
1
1
1
1
1
1
1
1
1
1
1
1
1
1
1
1
1
1
1
1
1
1
1
1
1
1
1
1
1
1
1
1
1
1
1
1
1
1
1
1
1
1
1
1
1
1
1
1
1
1
1
1
1
1
1
1
1
1
1
1
1
1
1
1
1
1
1
1
1
1
1
1
1
1
1
1
1
1
1
1
1
1
1
1
1
1
1
1
1
1
1
1
1
1
1
1
1
1
1
1
1
1
1
1
1
1
1
1
1
1
1
1
1
1
1
1
1
1
1
1
1
1
1
1
1
1
1
1
1
1
1
1
1
1
1
1
1
1
1
1
1
1
1
1
1
1
1
1
1
1
1
1
1
1
1
1
1
1
1
1
1
1
1
1
1
1
1
1
1
1
1
1
1
1
1
1
1
1
1
1
1
1
1
1
1
1
1
1
1
1
1
1
1
1
1
1
1
1
1
1
1
1
1
1
1
1
1
1
1
1
1
1
1
1
1
1
1
1
1
1
1
1
1
1
1
1
1
1
1
1
1
1
1
1
1
1
1
1
1
1
1
1
1
1
1
1
1
1
1
1
1
1
1
1
1
1
1
1
1
1
1
1
1
1
1
1
1
1
1
1
1
1
1
1
1
1
1
1
1
1
1
1
1
1
1
1
1
1
1
1
1
1
1
1
1
1
1
1
1
1
1
1
1
1
1
1
1
1
1
1
1
1
1
1
1
1
1
1
1
1
1
1
1
1
1
1
1
1
1
1
1
1
1
1
1
1
1
1
1
1
1
1
1
1
1
1
1
1
1
1
1
1
1
1
1
1
1
1
1
1
1
1
1
1
1
1
1
1
1
</DataArray>
<DataArray NumberOfComponents='3' type='Float64' Name='Velocity' format='ascii'>
0 0 0
0 0 0
0 0 0
0 0 0
0 0 0
0 0 0
0 0 0
0 0 0
0 0 0
0 0 0
0 0 0
0 0 0
0 0 0
0 0 0
0 0 0
0 0 0
0 0 0
0 0 0
0 0 0
0 0 0
0 0 0
0 0 0
0.00331906 -0.0183924 0
0.00398594 -0.0314584 0
0.00502086 -0.0424611 0
0.00490413 -0.0526483 0
0.0049841 -0.0604392 0
0.00541298 -0.0673699 0
0.00494476 -0.0740764 0
0.00429341 -0.0788554 0
0.00419165 -0.0823923 0
0.00422888 -0.0861647 0
0.00386887 -0.0900318 0
0.00308432 -0.0930594 0
0.00215577 -0.0948427 0
0.00134186 -0.0956317 0
0.000754589 -0.0958722 0
0.000387757 -0.0958946 0
0.000183719 -0.0958625 0
8.08482e-05 -0.0958324 0
3.32498e-05 -0.0958146 0
1.2848e-05 -0.0958059 0
4.68666e-06 -0.0958022 0
1.62062e-06 -0.0958008 0
5.33208e-07 -0.0958003 0
1.6747e-07 -0.0958001 0
5.03578e-08 -0.0958 0
1.45349e-08 -0.0958 0
4.03616e-09 -0.0958 0
1.08057e-09 -0.0958 0
2.79424e-10 -0.0958 0
6.99296e-11 -0.0958 0
1.69605e-11 -0.0958 0
3.98892e-12 -0.0958 0
9.08876e-13 -0.0958 0
1.92897e-13 -0.0958 0
2.54963e-14 -0.0958 0
2.35676e-15 -0.0958 0
1.28234e-16 -0.0958 0
4.5397e-18 -0.0958 0
2.88489e-19 -0.0958 0
2.31171e-20 -0.0958 0
3.98824e-22 -0.0958 0
-9.60481e-31 -0.0958 0
8.33111e-31 -0.0958 0
-8.49795e-31 -0.0958 0
9.68091e-31 -0.0958 0
-1.95056e-32 -0.0958 0
-9.70822e-31 -0.0958 0
8.51656e-31 -0.0958 0
-8.63593e-31 -0.0958 0
9.58888e-31 -0.0958 0
4.36039e-34 -0.0958 0
-9.60481e-31 -0.0958 0
8.33111e-31 -0.0958 0
-8.49795e-31 -0.0958 0
9.68091e-31 -0.0958 0
-1.95056e-32 -0.0958 0
-9.70829e-31 -0.0958 0
8.48491e-31 -0.0958 0
-8.58636e-31 -0.0958 0
9.65466e-31 -0.0958 0
-4.56155e-33 -0.0958 0
-9.83379e-31 -0.0958 0
8.35315e-31 -0.0958 0
-8.23435e-31 -0.0958 0
9.75505e-31 -0.0958 0
1.1069e-31 -0.0958 0
-2.29127e-31 -0.0958 0
-1.91883e-30 -0.0958 0
-2.99118e-22 -0.0958 0
-1.63657e-20 -0.0958 0
-1.49393e-19 -0.0958 0
-8.59335e-19 -0.0958 0
3.01351e-18 -0.0958 0
-1.14468e-17 -0.0958 0
-3.51968e-17 -0.0958 0
-1.4429e-17 -0.0958 0
1.16392e-19 -0.0958 0
1.46638e-17 -0.0958 0
4.57806e-17 -0.0958 0
3.97118e-17 -0.0958 0
2.75663e-17 -0.0958 0
-2.35064e-17 -0.0958 0
-8.06334e-17 -0.0958 0
-4.99361e-17 -0.0958 0
-2.31179e-17 -0.0958 0
6.813e-17 -0.0958 0
0.000729907 0.00221567 0
0.00108287 0.00396799 0
0.00113902 0.00531093 0
0.000918733 0.00709996 0
0.00104077 0.00734757 0
0.000806216 0.0088415 0
-4.29562e-05 0.009939 0
-0.000570837 0.00902745 0
-0.000649716 0.00795259 0
-0.000841301 0.00729374 0
-0.0012345 0.00581382 0
-0.0012778 0.00306061 0
-0.000446806 -0.00144072 0
0.00151299 -0.00886556 0
0.00350568 -0.0200388 0
0.00424846 -0.0318524 0
0.00486592 -0.042353 0
0.00499379 -0.0519952 0
0.00501224 -0.0600127 0
0.00513096 -0.066991 0
0.00484327 -0.0734673 0
0.00438858 -0.0785088 0
0.00418728 -0.082404 0
0.00408822 -0.0861607 0
0.00373723 -0.0898066 0
0.00304803 -0.0926995 0
0.00219942 -0.094501 0
0.00141486 -0.0953856 0
0.000820542 -0.095724 0
0.000433613 -0.0958162 0
0.000210722 -0.095825 0
9.49055e-05 -0.0958158 0
3.98756e-05 -0.0958078 0
1.57184e-05 -0.0958033 0
5.84157e-06 -0.0958013 0
2.05557e-06 -0.0958004 0
6.87482e-07 -0.0958001 0
2.19264e-07 -0.0958 0
6.68869e-08 -0.0958 0
1.95672e-08 -0.0958 0
5.50248e-09 -0.0958 0
1.49054e-09 -0.0958 0
3.89676e-10 -0.0958 0
9.85117e-11 -0.0958 0
2.4076e-11 -0.0958 0
5.73765e-12 -0.0958 0
1.33738e-12 -0.0958 0
2.96843e-13 -0.0958 0
4.50568e-14 -0.0958 0
4.25268e-15 -0.0958 0
2.26402e-16 -0.0958 0
3.17879e-18 -0.0958 0
-1.25882e-19 -0.0958 0
-3.35994e-21 -0.0958 0
-3.65087e-34 -0.0958 0
-1.43738e-30 -0.0958 0
1.23579e-30 -0.0958 0
-1.21521e-30 -0.0958 0
1.4235e-30 -0.0958 0
-2.79839e-32 -0.0958 0
-1.4187e-30 -0.0958 0
1.25309e-30 -0.0958 0
-1.2409e-30 -0.0958 0
1.41388e-30 -0.0958 0
1.56411e-32 -0.0958 0
-1.4371e-30 -0.0958 0
1.23579e-30 -0.0958 0
-1.21521e-30 -0.0958 0
1.4235e-30 -0.0958 0
-2.79839e-32 -0.0958 0
-1.41858e-30 -0.0958 0
1.25274e-30 -0.0958 0
-1.224e-30 -0.0958 0
1.43497e-30 -0.0958 0
-5.05169e-33 -0.0958 0
-1.42632e-30 -0.0958 0
1.23604e-30 -0.0958 0
-1.25825e-30 -0.0958 0
1.4394e-30 -0.0958 0
1.62602e-31 -0.0958 0
-3.53105e-31 -0.0958 0
-2.81273e-30 -0.0958 0
2.83229e-30 -0.0958 0
2.55465e-21 -0.0958 0
3.12993e-20 -0.0958 0
-8.10857e-20 -0.0958 0
-1.43022e-18 -0.0958 0
-1.78464e-17 -0.0958 0
-3.48899e-17 -0.0958 0
-2.2771e-17 -0.0958 0
-3.92285e-18 -0.0958 0
3.0543e-17 -0.0958 0
6.36634e-17 -0.0958 0
4.49165e-17 -0.0958 0
1.32633e-17 -0.0958 0
-3.97172e-17 -0.0958 0
-8.77098e-17 -0.0958 0
-6.37091e-17 -0.0958 0
-2.49223e-17 -0.0958 0
1.01696e-16 -0.0958 0
0.000873939 0.00336116 0
0.00139452 0.00508568 0
0.00140049 0.00742023 0
0.00117296 0.0103121 0
0.00133358 0.0105497 0
0.00089629 0.0130878 0
-5.14852e-05 0.014814 0
-0.00055629 0.0133011 0
-0.00076953 0.0116975 0
-0.00115251 0.0107871 0
-0.00156575 0.00834064 0
-0.00147208 0.00372062 0
-0.000195823 -0.0024525 0
0.00183098 -0.011322 0
0.00359811 -0.0215114 0
0.00446931 -0.0322212 0
0.00502961 -0.0416216 0
0.00518537 -0.0510048 0
0.00506621 -0.0591121 0
0.0050267 -0.0662031 0
0.00481773 -0.0727566 0
0.00443431 -0.0780755 0
0.00415887 -0.0822835 0
0.00398333 -0.0861241 0
0.00364853 -0.0896753 0
0.00302606 -0.0924781 0
0.00223011 -0.0942744 0
0.0014634 -0.0952126 0
0.000863198 -0.0956158 0
0.000462627 -0.0957576 0
0.000227506 -0.0957966 0
0.000103529 -0.0958033 0
4.39059e-05 -0.0958026 0
1.74573e-05 -0.0958013 0
6.54092e-06 -0.0958005 0
2.31963e-06 -0.0958002 0
7.81585e-07 -0.0958001 0
2.51055e-07 -0.0958 0
7.71058e-08 -0.0958 0
2.27026e-08 -0.0958 0
6.42333e-09 -0.0958 0
1.7501e-09 -0.0958 0
4.6006e-10 -0.0958 0
1.16901e-10 -0.0958 0
2.87806e-11 -0.0958 0
6.85603e-12 -0.0958 0
1.59086e-12 -0.0958 0
3.60353e-13 -0.0958 0
5.96701e-14 -0.0958 0
5.84479e-15 -0.0958 0
3.26224e-16 -0.0958 0
4.09183e-18 -0.0958 0
-4.02302e-19 -0.0958 0
-3.12525e-20 -0.0958 0
-4.9853e-22 -0.0958 0
6.38476e-31 -0.0958 0
-5.46546e-31 -0.0958 0
5.63321e-31 -0.0958 0
-6.6346e-31 -0.0958 0
-4.51118e-33 -0.0958 0
6.50035e-31 -0.0958 0
-5.42545e-31 -0.0958 0
5.389e-31 -0.0958 0
-6.41396e-31 -0.0958 0
-2.50634e-33 -0.0958 0
6.38354e-31 -0.0958 0
-5.46546e-31 -0.0958 0
5.63321e-31 -0.0958 0
-6.6346e-31 -0.0958 0
-4.51118e-33 -0.0958 0
6.49937e-31 -0.0958 0
-5.46902e-31 -0.0958 0
5.55496e-31 -0.0958 0
-6.52873e-31 -0.0958 0
-4.09385e-34 -0.0958 0
6.54755e-31 -0.0958 0
-5.36525e-31 -0.0958 0
5.31934e-31 -0.0958 0
-6.73217e-31 -0.0958 0
-5.01472e-32 -0.0958 0
2.00021e-31 -0.0958 0
1.33526e-30 -0.0958 0
3.98824e-22 -0.0958 0
1.62955e-20 -0.0958 0
-2.12694e-19 -0.0958 0
-2.34352e-18 -0.0958 0
-9.44681e-18 -0.0958 0
-1.11054e-17 -0.0958 0
7.21818e-19 -0.0958 0
3.23249e-18 -0.0958 0
7.05812e-18 -0.0958 0
2.0263e-17 -0.0958 0
2.38948e-17 -0.0958 0
-1.01948e-19 -0.0958 0
-2.80798e-17 -0.0958 0
-2.01065e-17 -0.0958 0
-3.39418e-17 -0.0958 0
-1.89456e-17 -0.0958 0
3.28533e-17 -0.0958 0
8.5285e-17 -0.0958 0
0.00073734 0.00306028 0
0.00109034 0.00505687 0
0.00113219 0.0088632 0
0.00129319 0.011875 0
0.00118496 0.0120515 0
0.000489497 0.0153222 0
-2.12162e-05 0.0172218 0
-0.00015316 0.0154089 0
-0.000593396 0.0138093 0
-0.00131668 0.0129499 0
-0.00157025 0.00990921 0
-0.00105416 0.00363992 0
0.000300561 -0.00414432 0
0.00226407 -0.0128562 0
0.00389559 -0.0224178 0
0.00490041 -0.0317238 0
0.00549128 -0.0410707 0
0.00544815 -0.0501626 0
0.00522485 -0.0579503 0
0.00517434 -0.0651807 0
0.00494923 -0.07194 0
0.00450626 -0.0775091 0
0.00415807 -0.0820235 0
0.00394596 -0.0860503 0
0.00361812 -0.0896143 0
0.00301924 -0.0923637 0
0.00224015 -0.0941353 0
0.00147826 -0.0950928 0
0.000875648 -0.0955341 0
0.000470769 -0.0957107 0
0.000232087 -0.0957729 0
0.000105848 -0.0957926 0
4.4989e-05 -0.0957981 0
1.79303e-05 -0.0957996 0
6.73545e-06 -0.0957999 0
2.39526e-06 -0.0958 0
8.09454e-07 -0.0958 0
2.60808e-07 -0.0958 0
8.03541e-08 -0.0958 0
2.37344e-08 -0.0958 0
6.73656e-09 -0.0958 0
1.84117e-09 -0.0958 0
4.85461e-10 -0.0958 0
1.23699e-10 -0.0958 0
3.05285e-11 -0.0958 0
7.29202e-12 -0.0958 0
1.70178e-12 -0.0958 0
3.86195e-13 -0.0958 0
6.595e-14 -0.0958 0
6.61965e-15 -0.0958 0
3.82707e-16 -0.0958 0
5.89583e-18 -0.0958 0
-3.04638e-19 -0.0958 0
-1.78099e-20 -0.0958 0
-1.85836e-22 -0.0958 0
7.87794e-30 -0.0958 0
-6.88393e-30 -0.0958 0
6.9172e-30 -0.0958 0
-7.9044e-30 -0.0958 0
-1.20336e-32 -0.0958 0
7.89656e-30 -0.0958 0
-6.89464e-30 -0.0958 0
6.86971e-30 -0.0958 0
-7.88016e-30 -0.0958 0
-1.96544e-33 -0.0958 0
7.87818e-30 -0.0958 0
-6.88393e-30 -0.0958 0
6.9172e-30 -0.0958 0
-7.9044e-30 -0.0958 0
-1.20336e-32 -0.0958 0
7.89781e-30 -0.0958 0
-6.9015e-30 -0.0958 0
6.89587e-30 -0.0958 0
-7.91258e-30 -0.0958 0
7.3186e-33 -0.0958 0
7.90399e-30 -0.0958 0
-6.92504e-30 -0.0958 0
6.88228e-30 -0.0958 0
-7.92741e-30 -0.0958 0
-8.67799e-31 -0.0958 0
1.86798e-30 -0.0958 0
1.57752e-29 -0.0958 0
6.19452e-23 -0.0958 0
-5.3198e-21 -0.0958 0
-6.26155e-19 -0.0958 0
-4.73122e-18 -0.0958 0
-1.48202e-17 -0.0958 0
2.90685e-18 -0.0958 0
3.44154e-17 -0.0958 0
3.82453e-17 -0.0958 0
3.64232e-17 -0.0958 0
1.19093e-17 -0.0958 0
4.12122e-18 -0.0958 0
-2.86537e-17 -0.0958 0
-4.35788e-17 -0.0958 0
1.25919e-17 -0.0958 0
-1.56642e-18 -0.0958 0
4.78719e-17 -0.0958 0
9.12048e-17 -0.0958 0
8.39378e-17 -0.0958 0
0.000316928 0.00367164 0
0.000630527 0.00608724 0
0.00118787 0.00912594 0
0.00155693 0.0113526 0
0.000800213 0.0120242 0
-7.08023e-05 0.0154042 0
6.4632e-05 0.0167989 0
0.000321793 0.0151048 0
-0.000410708 0.0141636 0
-0.00158426 0.0135667 0
-0.00184147 0.0102395 0
-0.000806725 0.00329323 0
0.000903112 -0.00556871 0
0.00278017 -0.0146767 0
0.00430478 -0.0238434 0
0.00525991 -0.0327356 0
0.00563205 -0.0414882 0
0.00556113 -0.0494921 0
0.00556405 -0.0568801 0
0.00556634 -0.0642238 0
0.00520348 -0.0710573 0
0.00464987 -0.0767949 0
0.00426956 -0.0816396 0
0.00403764 -0.0859354 0
0.00367026 -0.0895841 0
0.00302842 -0.0923084 0
0.00222242 -0.0940496 0
0.0014526 -0.0950086 0
0.000853616 -0.0954723 0
0.000455957 -0.0956734 0
0.000223626 -0.0957536 0
0.000101583 -0.0957836 0
4.30493e-05 -0.0957943 0
1.71224e-05 -0.0957981 0
6.42399e-06 -0.0957994 0
2.2832e-06 -0.0957998 0
7.71572e-07 -0.0957999 0
2.4871e-07 -0.0958 0
7.6687e-08 -0.0958 0
2.26751e-08 -0.0958 0
6.44403e-09 -0.0958 0
1.76367e-09 -0.0958 0
4.65732e-10 -0.0958 0
1.18907e-10 -0.0958 0
2.93666e-11 -0.0958 0
7.03982e-12 -0.0958 0
1.65509e-12 -0.0958 0
3.67311e-13 -0.0958 0
6.35236e-14 -0.0958 0
6.3769e-15 -0.0958 0
3.69247e-16 -0.0958 0
6.04367e-18 -0.0958 0
-2.14998e-19 -0.0958 0
-6.16223e-21 -0.0958 0
3.21757e-32 -0.0958 0
4.18305e-30 -0.0958 0
-3.64222e-30 -0.0958 0
3.64421e-30 -0.0958 0
-4.19261e-30 -0.0958 0
-2.69785e-32 -0.0958 0
4.21665e-30 -0.0958 0
-3.65254e-30 -0.0958 0
3.61954e-30 -0.0958 0
-4.16942e-30 -0.0958 0
3.5377e-32 -0.0958 0
4.18093e-30 -0.0958 0
-3.64222e-30 -0.0958 0
3.64421e-30 -0.0958 0
-4.19261e-30 -0.0958 0
-2.69785e-32 -0.0958 0
4.217e-30 -0.0958 0
-3.62151e-30 -0.0958 0
3.60897e-30 -0.0958 0
-4.16419e-30 -0.0958 0
1.69146e-32 -0.0958 0
4.17843e-30 -0.0958 0
-3.61988e-30 -0.0958 0
3.63509e-30 -0.0958 0
-4.26188e-30 -0.0958 0
-4.1672e-31 -0.0958 0
9.90522e-31 -0.0958 0
8.28961e-30 -0.0958 0
-8.25583e-30 -0.0958 0
1.77009e-21 -0.0958 0
8.21848e-20 -0.0958 0
6.13046e-19 -0.0958 0
2.44343e-18 -0.0958 0
5.76389e-18 -0.0958 0
1.55472e-17 -0.0958 0
2.53089e-17 -0.0958 0
4.4816e-17 -0.0958 0
5.67696e-17 -0.0958 0
2.00455e-17 -0.0958 0
-3.6892e-17 -0.0958 0
2.47017e-17 -0.0958 0
9.3433e-17 -0.0958 0
-2.54015e-17 -0.0958 0
-9.99936e-17 -0.0958 0
-3.62063e-17 -0.0958 0
9.2682e-17 -0.0958 0
0.000491435 0.00262702 0
0.00102494 0.0043216 0
0.00153135 0.00591409 0
0.00161663 0.00759346 0
0.000669785 0.00908946 0
-6.95557e-05 0.0118583 0
0.000321789 0.012171 0
0.000451852 0.0109745 0
-0.00067686 0.0112481 0
-0.00209261 0.0109922 0
-0.00234832 0.00718805 0
-0.00111711 -0.000117292 0
0.000823804 -0.00901445 0
0.0026735 -0.0179038 0
0.00406735 -0.026351 0
0.00492455 -0.0343662 0
0.00536317 -0.0419723 0
0.00566406 -0.0491967 0
0.0059224 -0.0564168 0
0.00584739 -0.0636111 0
0.00537334 -0.0702298 0
0.00486519 -0.0760304 0
0.00456195 -0.0811958 0
0.00429993 -0.0857771 0
0.00381264 -0.0895363 0
0.00304977 -0.092258 0
0.00217491 -0.0939796 0
0.00138803 -0.0949403 0
0.000800152 -0.0954218 0
0.000420898 -0.0956428 0
0.000203923 -0.0957376 0
9.17337e-05 -0.0957762 0
3.85739e-05 -0.0957912 0
1.5248e-05 -0.0957969 0
5.69307e-06 -0.0957989 0
2.01581e-06 -0.0957996 0
6.79261e-07 -0.0957999 0
2.18487e-07 -0.0958 0
6.72645e-08 -0.0958 0
1.98682e-08 -0.0958 0
5.64259e-09 -0.0958 0
1.54377e-09 -0.0958 0
4.07595e-10 -0.0958 0
1.04076e-10 -0.0958 0
2.57041e-11 -0.0958 0
6.16989e-12 -0.0958 0
1.43248e-12 -0.0958 0
3.23092e-13 -0.0958 0
5.29094e-14 -0.0958 0
5.1853e-15 -0.0958 0
2.96307e-16 -0.0958 0
6.42888e-18 -0.0958 0
5.9668e-20 -0.0958 0
3.98824e-22 -0.0958 0
2.33667e-32 -0.0958 0
-9.0725e-31 -0.0958 0
8.98302e-31 -0.0958 0
-9.25319e-31 -0.0958 0
9.41167e-31 -0.0958 0
2.24999e-32 -0.0958 0
-9.13735e-31 -0.0958 0
8.35038e-31 -0.0958 0
-8.92226e-31 -0.0958 0
9.29686e-31 -0.0958 0
4.66801e-32 -0.0958 0
-9.03214e-31 -0.0958 0
8.98302e-31 -0.0958 0
-9.25319e-31 -0.0958 0
9.41167e-31 -0.0958 0
2.24999e-32 -0.0958 0
-9.13376e-31 -0.0958 0
8.68238e-31 -0.0958 0
-8.90148e-31 -0.0958 0
9.65143e-31 -0.0958 0
-1.62752e-32 -0.0958 0
-9.60384e-31 -0.0958 0
8.79046e-31 -0.0958 0
-8.81961e-31 -0.0958 0
9.18487e-31 -0.0958 0
1.04081e-31 -0.0958 0
-1.96663e-31 -0.0958 0
-1.98974e-30 -0.0958 0
2.00144e-30 -0.0958 0
1.40284e-20 -0.0958 0
7.94683e-19 -0.0958 0
5.67482e-18 -0.0958 0
1.66625e-17 -0.0958 0