<?xml version='1.0' encoding='UTF-8'?>
<VTKFile byte_order='LittleEndian' version='0.1' type = 'UnstructuredGrid'>
<UnstructuredGrid>
<FieldData>
<DataArray type='Float64' Name='Time' NumberOfComponents='1' NumberOfTuples='1' format='ascii'>
4.001
</DataArray>
</FieldData>
<Piece NumberOfCells='808' NumberOfPoints='808'>
<Points>
<DataArray NumberOfComponents='3' type='Float64' Name='position' format='ascii'>
-0.00174074 -0.000572589 0
-0.00143384 0.0248959 0
-0.00574546 0.0468089 0
-0.00391481 0.0802699 0
-0.00459812 0.0986095 0
-0.00102424 0.124839 0
-0.00233332 0.15307 0
-0.00515465 0.176955 0
0.0250193 -0.000901088 0
0.0504872 -0.00153111 0
0.0751277 -0.00137227 0
0.0971831 -0.00167079 0
0.124556 -0.002637 0
0.153243 -0.00380156 0
0.177042 -0.00478918 0
0.20073 -0.0134036 0
0.213742 -0.00846258 0
0.245766 -0.0112679 0
0.2531 -0.0218109 0
0.293375 -0.024406 0
0.317505 -0.0374117 0
0.334087 -0.00204556 0
0.354522 -0.189474 0
0.397866 -0.214455 0
0.383009 -0.210123 0
0.441474 -0.248516 0
0.490797 -0.247225 0
0.474332 -0.26319 0
0.500933 -0.286032 0
0.549508 -0.310652 0
0.555093 -0.339462 0
0.591719 -0.346512 0
0.635889 -0.382833 0
0.654037 -0.363169 0
0.678087 -0.39319 0
0.670211 -0.441448 0
0.723586 -0.465915 0
0.732894 -0.474088 0
0.761192 -0.507216 0
0.795886 -0.522674 0
0.824412 -0.560506 0
0.87134 -0.54153 0
0.860668 -0.580045 0
0.898586 -0.627035 0
0.926621 -0.638847 0
0.948057 -0.661816 0
0.997797 -0.629138 0
0.953857 -0.701218 0
1.03219 -0.720478 0
1.07086 -0.697499 0
1.08099 -0.739808 0
1.10953 -0.772167 0
1.12824 -0.769662 0
1.15208 -0.807727 0
1.16833 -0.820467 0
1.19768 -0.842197 0
1.22664 -0.861549 0
1.23901 -0.876 0
1.28661 -0.884868 0
1.31655 -0.894274 0
1.3197 -0.920972 0
1.35205 -0.940027 0
1.39861 -0.944324 0
1.4026 -0.961783 0
1.4105 -0.969114 0
1.44253 -0.98742 0
1.47039 -1.00165 0
1.50967 -1.02444 0
1.52252 -1.03265 0
1.55104 -1.05149 0
1.58194 -1.07015 0
1.59436 -1.07242 0
1.6146 -1.07971 0
1.64799 -1.10299 0
1.67514 -1.12203 0
1.69462 -1.12783 0
1.71552 -1.13347 0
1.74013 -1.14864 0
1.76745 -1.16604 0
1.79499 -1.17868 0
1.81785 -1.18717 0
1.83775 -1.19596 0
1.86282 -1.20748 0
1.89304 -1.22065 0
1.91975 -1.23203 0
1.94044 -1.23912 0
1.96142 -1.24423 0
1.98806 -1.25274 0
2.01809 -1.26483 0
2.04529 -1.27493 0
2.06816 -1.27994 0
2.09022 -1.28253 0
2.11403 -1.28711 0
2.13981 -1.29485 0
2.16683 -1.30318 0
2.1939 -1.30961 0
2.219 -1.31356 0
2.24205 -1.31671 0
2.2654 -1.32046 0
2.29063 -1.32493 0
2.31693 -1.32963 0
2.34274 -1.33379 0
2.36769 -1.33681 0
2.39225 -1.3388 0
2.41695 -1.34023 0
2.44189 -1.34157 0
2.4668 -1.34292 0
2.49159 -1.34397 0
0.0137285 0.0317088 0
0.0420823 0.0321828 0
0.065458 0.0245342 0
0.0830112 0.0191616 0
0.121758 0.0182545 0
0.150295 0.0117169 0
0.178543 0.0230323 0
0.183125 0.00393194 0
0.227916 0.00675706 0
0.241884 0.0108232 0
0.265839 -0.0052764 0
0.278268 -0.0146961 0
0.331746 -0.0279647 0
0.347 -0.0306323 0
0.382932 -0.164981 0
0.391001 -0.175009 0
0.390637 -0.185002 0
0.423336 -0.228723 0
0.474689 -0.224479 0
0.494879 -0.237397 0
0.524428 -0.250976 0
0.533083 -0.284498 0
0.566811 -0.286908 0
0.606375 -0.316353 0
0.617438 -0.340263 0
0.643243 -0.348486 0
0.675855 -0.380361 0
0.703838 -0.414254 0
0.727236 -0.439226 0
0.765802 -0.474998 0
0.76108 -0.484533 0
0.796344 -0.502459 0
0.81948 -0.511697 0
0.851109 -0.531702 0
0.883128 -0.570992 0
0.895402 -0.590886 0
0.93539 -0.608375 0
0.948905 -0.626236 0
0.994474 -0.639064 0
1.00107 -0.669161 0
1.0372 -0.692816 0
1.04263 -0.70649 0
1.08288 -0.702593 0
1.10828 -0.745347 0
1.13351 -0.742731 0
1.14259 -0.749929 0
1.1578 -0.780621 0
1.19159 -0.822536 0
1.22259 -0.845605 0
1.26286 -0.860307 0
1.27891 -0.859009 0
1.30621 -0.871833 0
1.32994 -0.900279 0
1.3517 -0.909122 0
1.38204 -0.918406 0
1.40654 -0.933364 0
1.42016 -0.943803 0
1.4351 -0.962869 0
1.4776 -0.98595 0
1.50801 -0.994069 0
1.5214 -1.00525 0
1.54996 -1.02639 0
1.58102 -1.04049 0
1.59703 -1.04624 0
1.61484 -1.05775 0
1.64501 -1.0774 0
1.67424 -1.09265 0
1.69496 -1.10075 0
1.71568 -1.11072 0
1.74097 -1.12571 0
1.7681 -1.14193 0
1.79368 -1.15311 0
1.8165 -1.16128 0
1.83897 -1.17167 0
1.86449 -1.18415 0
1.89215 -1.19592 0
1.91778 -1.20552 0
1.94029 -1.21313 0
1.96326 -1.22059 0
1.98954 -1.22996 0
2.01739 -1.2403 0
2.04346 -1.24865 0
2.06732 -1.25364 0
2.09078 -1.25758 0
2.11509 -1.26311 0
2.14045 -1.27085 0
2.16677 -1.27874 0
2.19312 -1.28421 0
2.21821 -1.28789 0
2.24199 -1.29129 0
2.26593 -1.29571 0
2.2911 -1.30055 0
2.31693 -1.30506 0
2.34247 -1.30884 0
2.36747 -1.31164 0
2.39222 -1.31368 0
2.41704 -1.31526 0
2.44197 -1.31662 0
2.46686 -1.31782 0
2.49168 -1.31869 0
0.0156988 0.0453273 0
0.0400562 0.0590906 0
0.0727644 0.0527217 0
0.102596 0.0525796 0
0.131934 0.035053 0
0.159023 0.0196014 0
0.173354 0.0418324 0
0.18189 0.0366219 0
0.21596 0.0226961 0
0.235266 0.0294608 0
0.267128 0.0293474 0
0.292868 -0.00450936 0
0.325052 -0.0135334 0
0.342248 -0.0394413 0
0.347368 -0.0912996 0
0.396235 -0.119293 0
0.404315 -0.143827 0
0.443085 -0.208108 0
0.456156 -0.200148 0
0.48839 -0.222652 0
0.506371 -0.247488 0
0.546447 -0.263599 0
0.572806 -0.273371 0
0.586792 -0.318632 0
0.641162 -0.316009 0
0.642633 -0.331945 0
0.671466 -0.367511 0
0.712441 -0.368297 0
0.720203 -0.390574 0
0.745403 -0.443438 0
0.767135 -0.445237 0
0.790101 -0.467706 0
0.830042 -0.493094 0
0.851762 -0.505362 0
0.878115 -0.533644 0
0.904385 -0.540226 0
0.907769 -0.60137 0
0.951585 -0.584805 0
0.981165 -0.615691 0
1.01266 -0.620701 0
1.04169 -0.666484 0
1.04483 -0.685094 0
1.06561 -0.684151 0
1.09943 -0.717456 0
1.12771 -0.719312 0
1.15806 -0.713977 0
1.17078 -0.750518 0
1.18566 -0.797461 0
1.23231 -0.813444 0
1.2603 -0.829017 0
1.27877 -0.844888 0
1.30319 -0.849628 0
1.32708 -0.868214 0
1.35459 -0.883013 0
1.37717 -0.89077 0
1.40182 -0.903555 0
1.42444 -0.925804 0
1.44813 -0.946991 0
1.47597 -0.955287 0
1.49894 -0.962739 0
1.52307 -0.98503 0
1.55354 -1.00315 0
1.57815 -1.00962 0
1.59514 -1.02105 0
1.61684 -1.03727 0
1.64489 -1.05114 0
1.67206 -1.06372 0
1.69477 -1.07521 0
1.71624 -1.08678 0
1.74124 -1.10223 0
1.7686 -1.11722 0
1.79311 -1.12747 0
1.81548 -1.13652 0
1.83963 -1.1472 0
1.86554 -1.15922 0
1.89158 -1.17059 0
1.91662 -1.18 0
1.94029 -1.1882 0
1.96444 -1.19702 0
1.99061 -1.20617 0
2.01699 -1.21507 0
2.04199 -1.22268 0
2.06655 -1.22814 0
2.0913 -1.23281 0
2.11601 -1.23898 0
2.14095 -1.24653 0
2.16665 -1.25379 0
2.19254 -1.25866 0
2.21758 -1.26243 0
2.24186 -1.26631 0
2.26632 -1.27108 0
2.2915 -1.27604 0
2.317 -1.28035 0
2.34227 -1.28382 0
2.36725 -1.28654 0
2.39216 -1.28871 0
2.41711 -1.29039 0
2.44206 -1.29169 0
2.46693 -1.29273 0
2.49177 -1.29345 0
0.0373412 0.075256 0
0.0521932 0.0751217 0
0.0822559 0.0686123 0
0.0936406 0.0707003 0
0.129356 0.0621995 0
0.150771 0.0596487 0
0.17141 0.0630788 0
0.191196 0.0558739 0
0.219845 0.0465843 0
0.248325 0.0272725 0
0.27893 0.0395982 0
0.295736 0.00747932 0
0.317185 -0.00295802 0
0.350682 -0.0213269 0
0.364558 -0.060641 0
0.405699 -0.0861487 0
0.422079 -0.117473 0
0.442344 -0.136789 0
0.46977 -0.160996 0
0.50276 -0.218892 0
0.519061 -0.236692 0
0.562583 -0.22533 0
0.582566 -0.259204 0
0.602389 -0.255756 0
0.634722 -0.282391 0
0.621635 -0.317448 0
0.654851 -0.346313 0
0.712712 -0.346213 0
0.720446 -0.378773 0
0.745757 -0.376884 0
0.771603 -0.427012 0
0.793109 -0.457175 0
0.813333 -0.483349 0
0.842014 -0.499706 0
0.873458 -0.511872 0
0.909771 -0.516569 0
0.950357 -0.530992 0
0.957711 -0.558384 0
0.979241 -0.594253 0
1.00402 -0.574858 0
1.03392 -0.621625 0
1.0564 -0.648232 0
1.08498 -0.650013 0
1.10636 -0.6707 0
1.13415 -0.705666 0
1.16426 -0.700486 0
1.18291 -0.731109 0
1.20101 -0.781382 0
1.2273 -0.778677 0
1.24946 -0.776184 0
1.27889 -0.81647 0
1.30875 -0.83916 0
1.3346 -0.842339 0
1.35201 -0.850753 0
1.37406 -0.869658 0
1.40346 -0.884184 0
1.42717 -0.900516 0
1.44862 -0.920789 0
1.47608 -0.930583 0
1.5012 -0.9393 0
1.52256 -0.959941 0
1.54969 -0.976429 0
1.57687 -0.9831 0
1.59594 -0.99489 0
1.61703 -1.01408 0
1.64546 -1.02731 0
1.67185 -1.03589 0
1.69335 -1.0493 0
1.71626 -1.06455 0
1.74215 -1.0774 0
1.76839 -1.09079 0
1.79267 -1.10282 0
1.81538 -1.11192 0
1.83967 -1.12241 0
1.86596 -1.1343 0
1.8916 -1.14509 0
1.91591 -1.1547 0
1.94013 -1.16402 0
1.9653 -1.17299 0
1.99126 -1.18168 0
2.01659 -1.18963 0
2.04109 -1.1968 0
2.06609 -1.20301 0
2.09168 -1.2086 0
2.11672 -1.2148 0
2.14133 -1.2218 0
2.16647 -1.22838 0
2.19197 -1.23315 0
2.21706 -1.23703 0
2.24178 -1.24157 0
2.26671 -1.24677 0
2.29191 -1.25154 0
2.31707 -1.25545 0
2.34205 -1.25872 0
2.36704 -1.26155 0
2.39211 -1.26388 0
2.41717 -1.26558 0
2.44212 -1.26679 0
2.46698 -1.26771 0
2.49185 -1.26835 0
0.0150519 0.108972 0
0.0522557 0.101061 0
0.0912614 0.0866375 0
0.107804 0.104133 0
0.117995 0.0940044 0
0.171702 0.086422 0
0.177661 0.0735029 0
0.189108 0.0740926 0
0.237991 0.0785149 0
0.251829 0.0786833 0
0.270082 0.0722538 0
0.294733 0.040023 0
0.322799 0.0137553 0
0.345844 -0.0020082 0
0.376009 -0.0250387 0
0.372536 -0.0721879 0
0.406385 -0.0722296 0
0.431208 -0.106233 0
0.459624 -0.118065 0
0.492646 -0.193913 0
0.524676 -0.195925 0
0.554019 -0.187094 0
0.580992 -0.210295 0
0.607843 -0.236589 0
0.62294 -0.244498 0
0.647947 -0.288633 0
0.663459 -0.302434 0
0.694 -0.335115 0
0.721909 -0.354505 0
0.739119 -0.386123 0
0.767064 -0.392051 0
0.802589 -0.430856 0
0.819318 -0.452865 0
0.864681 -0.474985 0
0.889093 -0.472492 0
0.899159 -0.491703 0
0.960612 -0.513094 0
0.957697 -0.523656 0
0.976131 -0.55859 0
1.01868 -0.585038 0
1.03277 -0.601813 0
1.0438 -0.620081 0
1.08217 -0.633982 0
1.11964 -0.645621 0
1.11729 -0.666017 0
1.15403 -0.690749 0
1.18992 -0.70699 0
1.19132 -0.724569 0
1.22194 -0.731799 0
1.25868 -0.769561 0
1.27994 -0.788128 0
1.30199 -0.804555 0
1.3344 -0.821714 0
1.35715 -0.833039 0
1.37646 -0.842914 0
1.40189 -0.857948 0
1.4247 -0.876802 0
1.44733 -0.892234 0
1.47844 -0.903476 0
1.50535 -0.920804 0
1.52265 -0.937693 0
1.54466 -0.944975 0
1.57398 -0.954891 0
1.59824 -0.974454 0
1.61873 -0.990171 0
1.6447 -0.999527 0
1.6718 -1.01157 0
1.6935 -1.02575 0
1.71545 -1.03949 0
1.74227 -1.05283 0
1.76882 -1.06495 0
1.79209 -1.07654 0
1.81516 -1.08799 0
1.84007 -1.0984 0
1.86611 -1.10886 0
1.89152 -1.11995 0
1.91565 -1.12998 0
1.93994 -1.1393 0
1.96569 -1.14881 0
1.99161 -1.15696 0
2.01624 -1.16385 0
2.04062 -1.17141 0
2.06612 -1.17858 0
2.09198 -1.18444 0
2.11698 -1.19045 0
2.14147 -1.19691 0
2.16631 -1.20267 0
2.19146 -1.20719 0
2.21667 -1.21196 0
2.24189 -1.21733 0
2.26713 -1.2226 0
2.2922 -1.22691 0
2.31702 -1.23035 0
2.34184 -1.23363 0
2.3669 -1.23671 0
2.39209 -1.23915 0
2.41719 -1.24078 0
2.44213 -1.24189 0
2.467 -1.24279 0
2.49192 -1.24342 0
0.0313656 0.114022 0
0.0422594 0.12119 0
0.0630279 0.114362 0
0.106876 0.134041 0
0.12441 0.129331 0
0.146162 0.094561 0
0.162259 0.103199 0
0.191887 0.0877832 0
0.234097 0.0944587 0
0.260356 0.0921766 0
0.277463 0.0813269 0
0.296528 0.0574404 0
0.305036 0.0413215 0
0.343405 0.0112536 0
0.377732 0.00796878 0
0.399893 -0.00128959 0
0.411954 -0.061233 0
0.427083 -0.0897591 0
0.472173 -0.114394 0
0.534207 -0.147829 0
0.519861 -0.168262 0
0.563186 -0.180313 0
0.584508 -0.17511 0
0.592365 -0.218168 0
0.641786 -0.214407 0
0.646822 -0.257717 0
0.668547 -0.277072 0
0.689395 -0.31213 0
0.731368 -0.319225 0
0.765894 -0.329316 0
0.774806 -0.349414 0
0.795861 -0.389915 0
0.826816 -0.413942 0
0.85826 -0.440602 0
0.882111 -0.459912 0
0.905477 -0.466776 0
0.938603 -0.487064 0
0.954388 -0.502669 0
0.986118 -0.540374 0
1.01585 -0.562697 0
1.04708 -0.585615 0
1.05783 -0.588113 0
1.08141 -0.604111 0
1.11648 -0.63502 0
1.13931 -0.662731 0
1.15513 -0.66864 0
1.19055 -0.690733 0
1.19532 -0.68005 0
1.22106 -0.71407 0
1.26134 -0.744712 0
1.28978 -0.766943 0
1.29968 -0.777618 0
1.33186 -0.793076 0
1.3577 -0.806723 0
1.37733 -0.820222 0
1.40049 -0.834276 0
1.42305 -0.852147 0
1.44903 -0.868086 0
1.48037 -0.879646 0
1.50432 -0.894435 0
1.52177 -0.910255 0
1.54489 -0.919342 0
1.57288 -0.931046 0
1.59728 -0.9496 0
1.61999 -0.96475 0
1.64549 -0.974828 0
1.67071 -0.987105 0
1.69316 -1.00171 0
1.7162 -1.01515 0
1.74225 -1.02734 0
1.76829 -1.03895 0
1.79178 -1.0509 0
1.81506 -1.06337 0
1.84047 -1.07466 0
1.86657 -1.08451 0
1.89124 -1.09458 0
1.91508 -1.10487 0
1.93998 -1.11471 0
1.96603 -1.12409 0
1.99156 -1.1319 0
2.01594 -1.13879 0
2.04061 -1.14644 0
2.0664 -1.15405 0
2.0922 -1.16035 0
2.11702 -1.16602 0
2.14133 -1.1715 0
2.16601 -1.17667 0
2.19115 -1.18154 0
2.21658 -1.18733 0
2.24214 -1.19332 0
2.26747 -1.19834 0
2.29232 -1.20198 0
2.3169 -1.20518 0
2.34167 -1.20868 0
2.36682 -1.212 0
2.39209 -1.21444 0
2.41718 -1.21594 0
2.4421 -1.217 0
2.467 -1.21796 0
2.49198 -1.21869 0
0.0203809 0.154663 0
0.0542319 0.164177 0
0.0719151 0.153881 0
0.100429 0.145617 0
0.127741 0.158105 0
0.160045 0.140452 0
0.166226 0.116071 0
0.189488 0.128219 0
0.229224 0.128145 0
0.248622 0.112391 0
0.275515 0.102645 0
0.293661 0.0778496 0
0.307938 0.0741356 0
0.339113 0.0451969 0
0.363226 0.0371266 0
0.409108 -0.00710516 0
0.427493 -0.0342681 0
0.450567 -0.0687984 0
0.465904 -0.0954069 0
0.500227 -0.108989 0
0.53006 -0.130587 0
0.573495 -0.140981 0
0.563912 -0.138123 0
0.605688 -0.180578 0
0.623525 -0.193787 0
0.651637 -0.216123 0
0.675004 -0.243497 0
0.677956 -0.272012 0
0.729782 -0.29125 0
0.754935 -0.315003 0
0.775026 -0.336667 0
0.786724 -0.353253 0
0.791651 -0.367813 0
0.873645 -0.42204 0
0.887674 -0.444129 0
0.918283 -0.464972 0
0.922447 -0.481266 0
0.975005 -0.476629 0
0.982581 -0.495303 0
1.00674 -0.512421 0
1.03448 -0.546617 0
1.06452 -0.545679 0
1.09506 -0.574689 0
1.10725 -0.591053 0
1.13591 -0.619392 0
1.16144 -0.6362 0
1.18636 -0.641034 0
1.20065 -0.668397 0
1.23034 -0.70139 0
1.26158 -0.714204 0
1.29011 -0.73782 0
1.30023 -0.746608 0
1.334 -0.768799 0
1.35512 -0.779196 0
1.37138 -0.789586 0
1.3993 -0.81349 0
1.42903 -0.834388 0
1.45306 -0.842217 0
1.47546 -0.850893 0
1.49965 -0.868849 0
1.52447 -0.884843 0
1.54891 -0.894885 0
1.57176 -0.906781 0
1.59486 -0.92403 0
1.62091 -0.940128 0
1.64675 -0.951212 0
1.66937 -0.961904 0
1.69185 -0.976758 0
1.71725 -0.991618 0
1.74365 -1.00226 0
1.76756 -1.0127 0
1.79014 -1.02537 0
1.81509 -1.03897 0
1.84184 -1.05132 0
1.86719 -1.0605 0
1.89043 -1.06894 0
1.91416 -1.07942 0
1.94018 -1.09035 0
1.96664 -1.09935 0
1.9914 -1.10683 0
2.01544 -1.11412 0
2.0407 -1.12174 0
2.06692 -1.12939 0
2.09244 -1.13617 0
2.11686 -1.14159 0
2.141 -1.14598 0
2.16567 -1.15035 0
2.191 -1.15621 0
2.21669 -1.16312 0
2.24243 -1.16946 0
2.26769 -1.17372 0
2.29236 -1.17677 0
2.31677 -1.18006 0
2.34151 -1.18388 0
2.36676 -1.18738 0
2.3921 -1.18971 0
2.41719 -1.19103 0
2.44209 -1.19209 0
2.46698 -1.19319 0
2.492 -1.19409 0
0.018904 0.183625 0
0.0532308 0.177737 0
0.0735183 0.184156 0
0.1138 0.161108 0
0.140767 0.190695 0
0.158504 0.162498 0
0.160097 0.150768 0
0.199789 0.141352 0
0.211779 0.14055 0
0.247164 0.128141 0
0.267492 0.116916 0
0.2929 0.121023 0
0.307946 0.102416 0
0.342179 0.0570022 0
0.386779 0.048433 0
0.408252 0.0169466 0
0.455332 -0.00408923 0
0.439425 -0.0392534 0
0.487255 -0.0847503 0
0.493609 -0.0765833 0
0.535773 -0.0699497 0
0.586607 -0.0923108 0
0.607104 -0.114306 0
0.61367 -0.133368 0
0.642523 -0.117693 0
0.624159 -0.20495 0
0.679471 -0.223451 0
0.690645 -0.248152 0
0.714542 -0.269657 0
0.735727 -0.275735 0
0.747869 -0.32208 0
0.779813 -0.299806 0
0.804282 -0.316495 0
0.856869 -0.382413 0
0.864438 -0.406623 0
0.926462 -0.419937 0
0.932663 -0.440956 0
0.942509 -0.446389 0
0.968617 -0.495093 0
1.00235 -0.492955 0
1.05151 -0.512858 0
1.07773 -0.525703 0
1.09425 -0.553921 0
1.10225 -0.546605 0
1.14499 -0.599302 0
1.17549 -0.604858 0
1.19109 -0.612306 0
1.2077 -0.650039 0
1.24386 -0.695796 0
1.2664 -0.691296 0
1.2772 -0.688613 0
1.30261 -0.724038 0
1.33603 -0.746123 0
1.35342 -0.742334 0
1.36497 -0.758266 0
1.39704 -0.797249 0
1.43745 -0.815346 0
1.45859 -0.812404 0
1.46835 -0.820636 0
1.49231 -0.843275 0
1.52856 -0.860977 0
1.55529 -0.870131 0
1.57024 -0.88256 0
1.59096 -0.900178 0
1.62198 -0.915984 0
1.64923 -0.926513 0
1.66761 -0.936588 0
1.68892 -0.951652 0
1.71871 -0.968147 0
1.74665 -0.978861 0
1.76665 -0.986035 0
1.78712 -0.998767 0
1.81497 -1.01606 0
1.84444 -1.02886 0
1.86805 -1.03562 0
1.88865 -1.04291 0
1.91299 -1.05437 0
1.94087 -1.06638 0
1.96745 -1.07513 0
1.9912 -1.08197 0
2.01477 -1.08931 0
2.04054 -1.09726 0
2.06754 -1.10506 0
2.09299 -1.1119 0
2.11666 -1.11685 0
2.14041 -1.12032 0
2.16535 -1.12458 0
2.19102 -1.13134 0
2.21687 -1.13922 0
2.24267 -1.14547 0
2.26789 -1.14894 0
2.29242 -1.15147 0
2.31664 -1.1549 0
2.34132 -1.15914 0
2.36667 -1.16283 0
2.39213 -1.16497 0
2.41724 -1.16607 0
2.44209 -1.16711 0
2.46696 -1.16837 0
2.49198 -1.16946 0
</DataArray>
</Points>
<PointData>
<DataArray NumberOfComponents='1' type='Int32' Name='Particle Type' format='ascii'>
0
0
0
0
0
0
0
0
0
0
0
0
0
0
0
0
0
0
0
0
0
0
1
1
1
1
1
1
1
1
1
1
1
1
1
1
1
1
1
1
1
1
1
1
1
1
1
1
1
1
1
1
1
1
1
1
1
1
1
1
1
1
1
1
1
1
1
1
1
1
1
1
1
1
1
1
1
1
1
1
1
1
1
1
1
1
1
1
1
1
1
1
1
1
1
1
1
1
1
1
1
1
1
1
1
1
1
1
1
1
1
1
1
1
1
1
1
1
1
1
1
1
1
1
1
1
1
1
1
1
1
1
1
1
1
1
1
1
1
1
1
1
1
1
1
1
1
1
1
1
1
1
1
1
1
1
1
1
1
1
1
1
1
1
1
1
1
1
1
1
1
1
1
1
1
1
1
1
1
1
1
1
1
1
1
1
1
1
1
1
1
1
1
1
1
1
1
1
1
1
1
1
1
1
1
1
1
1
1
1
1
1
1
1
1
1
1
1
1
1
1
1
1
1
1
1
1
1
1
1
1
1
1
1
1
1
1
1
1
1
1
1
1
1
1
1
1
1
1
1
1
1
1
1
1
1
1
1
1
1
1
1
1
1
1
1
1
1
1
1
1
1
1
1
1
1
1
1
1
1
1
1
1
1
1
1
1
1
1
1
1
1
1
1
1
1
1
1
1
1
1
1
1
1
1
1
1
1
1
1
1
1
1
1
1
1
1
1
1
1
1
1
1
1
1
1
1
1
1
1
1
1
1
1
1
1
1
1
1
1
1
1
1
1
1
1
1
1
1
1
1
1
1
1
1
1
1
1
1
1
1
1
1
1
1
1
1
1
1
1
1
1
1
1
1
1
1
1
1
1
1
1
1
1
1
1
1
1
1
1
1
1
1
1
1
1
1
1
1
1
1
1
1
1
1
1
1
1
1
1
1
1
1
1
1
1
1
1
1
1
1
1
1
1
1
1
1
1
1
1
1
1
1
1
1
1
1
1
1
1
1
1
1
1
1
1
1
1
1
1
1
1
1
1
1
1
1
1
1
1
1
1
1
1
1
1
1
1
1
1
1
1
1
1
1
1
1
1
1
1
1
1
1
1
1
1
1
1
1
1
1
1
1
1
1
1
1
1
1
1
1
1
1
1
1
1
1
1
1
1
1
1
1
1
1
1
1
1
1
1
1
1
1
1
1
1
1
1
1
1
1
1
1
1
1
1
1
1
1
1
1
1
1
1
1
1
1
1
1
1
1
1
1
1
1
1
1
1
1
1
1
1
1
1
1
1
1
1
1
1
1
1
1
1
1
1
1
1
1
1
1
1
1
1
1
1
1
1
1
1
1
1
1
1
1
1
1
1
1
1
1
1
1
1
1
1
1
1
1
1
1
1
1
1
1
1
1
1
1
1
1
1
1
1
1
1
1
1
1
1
1
1
1
1
1
1
1
1
1
1
1
1
1
1
1
1
1
1
1
1
1
1
1
1
1
1
1
1
1
1
1
1
1
1
1
1
1
1
1
1
1
1
1
1
1
1
1
1
1
1
1
1
1
1
1
1
1
1
1
1
1
1
1
1
1
1
1
1
1
1
1
1
1
1
1
1
1
1
1
1
1
1
1
1
1
1
1
1
1
1
1
1
1
1
1
1
1
1
1
1
1
1
1
1
1
1
1
1
1
1
1
1
1
1
1
1
1
1
1
1
1
1
1
1
1
1
1
1
1
1
1
1
1
1
1
1
1
1
1
1
1
1
1
1
1
1
1
1
1
1
1
1
1
1
1
1
1
1
1
1
1
1
1
1
1
1
1
1
1
1
1
1
1
1
1
1
1
1
</DataArray>
<DataArray NumberOfComponents='3' type='Float64' Name='Velocity' format='ascii'>
-0.735699 -0.250069 0
-0.471442 0.0583466 0
-0.869531 -0.140022 0
-0.532677 0.408378 0
-0.780329 -0.107387 0
-0.375605 0.0245288 0
-0.630034 0.430136 0
-0.772271 0.333739 0
0.107389 -0.408196 0
0.0415355 -0.657705 0
0.160806 -0.446242 0
-0.245806 -0.396407 0
0.0337184 -0.468349 0
0.376891 -0.837306 0
-0.0871713 -0.763596 0
0.061625 -0.975356 0
-0.593831 -0.324714 0
-0.306689 -0.822601 0
-0.414861 -0.45647 0
0.492507 -0.656428 0
0.0245939 -0.7824 0
-0.028976 -0.349616 0
-0.243655 -0.683841 0
0.162098 1.02699 0
-0.0292265 0.132271 0
-0.646246 -0.0409429 0
0.923008 -0.0800132 0
-0.37128 -0.372531 0
0.164008 0.508897 0
0.59554 -0.556482 0
-0.953485 -0.0690165 0
-0.659015 -0.707114 0
0.321031 -0.829983 0
0.102788 -0.065175 0
0.372985 -1.06137 0
0.428932 0.562208 0
0.0969715 -0.679449 0
0.360454 0.974674 0
0.254923 -0.0888157 0
-0.0445633 -0.536044 0
0.0931855 -0.771499 0
-0.0774926 -0.586729 0
0.381315 1.30435 0
-0.463178 0.0618973 0
0.0141783 -0.88506 0
0.316282 0.518604 0
0.637357 -0.809216 0
0.233998 0.305895 0
-0.639847 -0.730906 0
-0.277411 -0.802559 0
-0.201287 0.264925 0
-0.19887 -0.493956 0
0.195215 -0.358784 0
-0.0856431 0.0150914 0
0.416408 -0.76541 0
-0.274385 -0.390481 0
0.410317 -0.31647 0
-0.267214 -0.417111 0
-0.680999 -0.481167 0
0.542748 -0.217409 0
0.399627 0.163755 0
-0.957189 -0.528619 0
0.12028 -0.618683 0
0.47077 -0.257897 0
0.541021 -0.653729 0
-0.158898 -0.354817 0
-0.274678 -0.232263 0
-0.184452 -0.213218 0
0.387982 -0.566325 0
-0.319939 -0.119649 0
0.146243 -0.533226 0
0.344086 -0.724697 0
-0.123534 -0.269288 0
-0.224285 -0.0644324 0
0.0644134 -0.422571 0
0.155445 -0.664677 0
0.049805 -0.453926 0
-0.0655024 -0.217567 0
-0.129102 -0.266115 0
-0.0453725 -0.408914 0
0.117001 -0.452122 0
0.0794309 -0.372085 0
-0.127417 -0.274949 0
-0.149459 -0.263147 0
0.0498006 -0.360576 0
0.162823 -0.456609 0
0.0451219 -0.405926 0
-0.136745 -0.248082 0
-0.151642 -0.201118 0
-0.0124465 -0.319504 0
0.0862941 -0.443503 0
0.0640523 -0.428974 0
-0.00823799 -0.331824 0
-0.0710416 -0.262066 0
-0.104369 -0.277444 0
-0.0685722 -0.357307 0
0.0101263 -0.401692 0
0.0451368 -0.393139 0
0.00571373 -0.35752 0
-0.0488626 -0.335763 0
-0.0579309 -0.334691 0
-0.0357063 -0.350473 0
-0.0169017 -0.363081 0
-0.013857 -0.359152 0
-0.0178689 -0.344692 0
-0.0131906 -0.33225 0
0.000391905 -0.332554 0
0.0110788 -0.342115 0
0.628421 -0.0211523 0
-1.4228 -0.239321 0
0.120575 0.855405 0
0.363021 0.164722 0
0.602462 -0.482938 0
-0.133697 -0.367314 0
0.848103 0.0113515 0
0.153203 -0.150967 0
1.10843 0.231185 0
-0.0233821 -0.104191 0
0.365766 0.445051 0
-0.104989 -0.0962398 0
0.162704 0.147116 0
-0.396978 -0.0787952 0
0.000428453 -0.46549 0
0.439893 0.100781 0
0.389409 -0.165266 0
-1.04752 -0.834986 0
0.00068883 -0.64327 0
0.494754 -0.589786 0
0.441454 0.21447 0
-0.117494 0.708817 0
0.163019 0.63841 0
0.455251 -0.437823 0
-0.145108 0.398146 0
-0.129537 0.191095 0
0.538855 -0.56535 0
0.0600346 0.352556 0
-0.871171 -0.712269 0
1.08351 -0.919238 0
0.643992 -0.319121 0
-0.387644 0.462251 0
-0.613652 -0.154816 0
-0.511397 -0.0294821 0
0.49151 -1.19366 0
-0.69379 -0.73521 0
0.322102 0.246292 0
0.0106294 -0.628658 0
-0.347338 -0.65245 0
-0.276916 0.345561 0
-0.266618 -1.23614 0
0.459282 -0.372308 0
0.378995 -0.124573 0
0.502686 0.210114 0
0.364059 -0.590369 0
0.933908 -0.618629 0
-0.461648 0.901933 0
-0.117521 0.345953 0
-0.711501 -0.158812 0
0.00065724 -0.752831 0
0.14374 -0.737248 0
-0.0181272 -0.0751066 0
0.183662 -0.206492 0
-0.0381282 -0.572075 0
-0.106548 -0.410846 0
0.168786 -0.521528 0
0.52207 -0.36634 0
-0.140702 0.000754506 0
-0.58833 -0.296128 0
0.242318 -0.623272 0
0.175953 -0.261652 0
-0.259354 -0.192633 0
0.0453478 -0.522994 0
0.357092 -0.571941 0
0.0287024 -0.29238 0
-0.235393 -0.205282 0
-0.0178123 -0.452608 0
0.152811 -0.526127 0
0.0405963 -0.380003 0
-0.0850756 -0.246855 0
-0.0837173 -0.309385 0
0.00317299 -0.452045 0
0.0662712 -0.430291 0
0.0156816 -0.31934 0
-0.082027 -0.285057 0
-0.0759708 -0.32783 0
0.0316146 -0.37928 0
0.0861356 -0.396683 0
0.0123022 -0.339017 0
-0.0852702 -0.265509 0
-0.0843839 -0.268037 0
-0.00911849 -0.354194 0
0.0381914 -0.413406 0
0.0262623 -0.388494 0
-0.00933628 -0.311516 0
-0.0510776 -0.263359 0
-0.0754649 -0.305693 0
-0.0536685 -0.379213 0
-0.00409113 -0.404654 0
0.0202489 -0.377843 0
-0.00531312 -0.340523 0
-0.0393898 -0.334654 0
-0.0446518 -0.34363 0
-0.0303917 -0.357297 0
-0.0184346 -0.360459 0
-0.0166343 -0.351513 0
-0.0173878 -0.340776 0
-0.0115423 -0.335057 0
-0.00111085 -0.336447 0
0.00606887 -0.341547 0
0.97143 -0.0477517 0
-0.0814155 0.8496 0
-0.201341 -0.248516 0
0.237754 -0.862453 0
-0.21157 0.340331 0
0.475072 -0.386223 0
-0.285063 -0.28875 0
0.362285 0.405301 0
-0.296241 -0.583411 0
0.22958 0.496139 0
0.232783 0.817643 0
0.0693361 0.0908099 0
-0.000712956 -0.0300375 0
-0.314523 -0.102188 0
0.766393 0.12912 0
0.0397217 -0.571213 0
0.558654 0.665959 0
-0.22422 0.221231 0
-0.0705911 0.269286 0
-0.0500777 -0.0360263 0
0.876286 -0.878391 0
-0.380773 -1.31654 0
-0.11735 0.277168 0
0.722495 -0.124082 0
-0.356812 -1.69222 0
-0.183801 0.785436 0
0.229809 -0.368232 0
0.0370104 0.0800698 0
-0.0560245 -0.713119 0
-1.42753 0.12135 0
-0.0522283 -1.42237 0
0.157228 -0.111981 0
-0.908626 -0.169821 0
0.134498 -0.571923 0
-0.0981354 -0.218102 0
0.160975 0.183868 0
0.345446 0.424143 0
-0.164444 -0.864133 0
-0.225032 -0.165073 0
0.195714 -0.236173 0
-0.0453356 -0.0419022 0
0.041061 -1.03528 0
0.516732 0.55971 0
-0.96552 0.0154202 0
0.215625 -0.978346 0
-0.278838 -0.433936 0
0.340046 0.874402 0
-0.372543 0.225387 0
-0.705332 -0.263857 0
0.249718 -0.236723 0
0.167791 -0.689892 0
0.223879 -0.514535 0
-0.0366693 -0.272136 0
0.00488968 -0.473588 0
0.0911658 -0.527037 0
0.00130297 -0.207709 0
0.0433839 -0.00864672 0
-0.034924 -0.375961 0
0.0350907 -0.687347 0
0.0952619 -0.325279 0
-0.137987 -0.0597488 0
-0.12232 -0.483384 0
0.200041 -0.555157 0
0.230471 -0.336953 0
-0.0135076 -0.344755 0
-0.12067 -0.411045 0
-0.0265948 -0.403774 0
0.0865022 -0.432778 0
0.045461 -0.343809 0
-0.0880725 -0.246016 0
-0.0739843 -0.357206 0
0.0440855 -0.451011 0
0.0421756 -0.407944 0
-0.030011 -0.333731 0
-0.0526835 -0.303091 0
-0.032178 -0.331403 0
0.0153594 -0.372094 0
0.040568 -0.354389 0
-0.00851392 -0.317224 0
-0.0546764 -0.30063 0
-0.0299204 -0.310438 0
-0.000593454 -0.351954 0
-0.00373168 -0.387824 0
-0.00737432 -0.362541 0
-0.00930704 -0.297829 0
-0.0313317 -0.280171 0
-0.0555129 -0.329283 0
-0.0431845 -0.390926 0
-0.0115666 -0.397209 0
4.5489e-05 -0.369573 0
-0.0159733 -0.33868 0
-0.0343047 -0.340325 0
-0.0336746 -0.353218 0
-0.0233294 -0.359717 0
-0.0182666 -0.352553 0
-0.0191154 -0.34088 0
-0.0177691 -0.335898 0
-0.0105915 -0.336412 0
-0.00221393 -0.338114 0
0.00206126 -0.339282 0
-1.2812 -0.304981 0
-0.47922 -0.143537 0
-0.122774 -0.0508149 0
-0.0988646 -0.220826 0
-0.0643613 -0.0252734 0
-0.313728 0.679907 0
0.917522 -0.412794 0
-0.491985 0.011995 0
0.653593 -0.399833 0
-0.726984 -0.740748 0
-0.23658 -0.259736 0
-0.557632 0.315943 0
-0.0317784 -0.222625 0
0.118304 -0.290705 0
-0.213499 -1.10494 0
-0.883233 0.107813 0
0.317865 -0.0577237 0
-1.00026 -0.599466 0
-0.0759702 -0.47341 0
-0.838385 -0.168353 0
0.670104 -0.150238 0
-0.152779 -0.954761 0
0.989507 -0.32575 0
0.773203 0.0751417 0
-1.56798 -0.903544 0
-0.385488 0.372645 0
-0.131092 -0.298589 0
-0.634545 -0.712856 0
-0.235703 -0.527879 0
-0.114716 0.040564 0
-0.545021 0.0317011 0
-0.0422027 0.263694 0
-0.602552 -1.40104 0
0.321608 0.733895 0
-0.345541 0.691789 0
-0.0382127 -1.2773 0
0.124127 0.051918 0
0.377605 -0.402452 0
0.281489 -0.644948 0
0.103548 -0.459525 0
0.585133 0.759479 0
0.0368468 -0.14974 0
-0.115714 -1.23376 0
-0.0612174 0.200574 0
-0.367204 -0.0201166 0
0.134437 0.0450436 0
0.00328894 0.0814648 0
0.0582465 0.0774963 0
0.23366 -1.52229 0
0.0513623 0.00885481 0
-0.273709 0.424575 0
-0.220081 -0.549234 0
0.172113 -0.80077 0
0.245875 -0.315462 0
-0.0754519 -0.195354 0
-0.0922129 -0.351775 0
0.130557 -0.215668 0
0.0423013 -0.315806 0
-0.0461705 -0.624801 0
0.107175 -0.347768 0
0.0436667 -0.149268 0
-0.121947 -0.465412 0
0.0850689 -0.58569 0
0.218298 -0.29199 0
-0.0151439 -0.254387 0
-0.130705 -0.50681 0
0.0351615 -0.469827 0
0.0854995 -0.288616 0
-0.016134 -0.321768 0
-0.0740088 -0.355086 0
-0.0428613 -0.328828 0
0.0323878 -0.414688 0
0.0395333 -0.429466 0
-0.0369074 -0.335442 0
-0.0589209 -0.317134 0
-0.00850965 -0.339872 0
0.0210013 -0.338756 0
0.00680932 -0.331082 0
-0.0244991 -0.328669 0
-0.0274293 -0.325938 0
0.00151349 -0.337006 0
0.000836709 -0.342898 0
-0.0301139 -0.347694 0
-0.0311301 -0.342253 0
-0.00947799 -0.308143 0
-0.0131 -0.303648 0
-0.0367021 -0.342763 0
-0.0368847 -0.393352 0
-0.0202126 -0.390192 0
-0.0179473 -0.354829 0
-0.0269381 -0.342523 0
-0.0295667 -0.357577 0
-0.0224134 -0.365651 0
-0.0176799 -0.35693 0
-0.0197102 -0.339164 0
-0.0214322 -0.329392 0
-0.0172591 -0.332122 0
-0.0091444 -0.337571 0
-0.00277702 -0.338993 0
-0.000672738 -0.337351 0
1.10257 -0.00277672 0
-0.682509 0.465213 0
-0.168386 0.711108 0
0.708517 -0.161622 0
0.130312 -1.13333 0
0.268079 0.429918 0
0.0457422 -0.429475 0
-0.0644585 -0.119642 0
-0.190029 0.177745 0
0.142572 -0.230195 0
0.0264381 -0.754856 0
0.0495243 -0.307107 0
0.098099 0.406562 0
0.162074 -0.140269 0
0.3009 -0.215376 0
-0.785777 0.358634 0
-0.118959 -0.20432 0
1.40379 -0.0274567 0
0.521116 -0.170918 0
-0.670197 -0.333011 0
0.650612 0.108302 0
-0.912465 0.00537344 0
0.502223 0.226643 0
-0.0190222 -0.754091 0
0.455706 -0.277088 0
0.0670259 -0.288612 0
0.301036 0.877289 0
-0.0677568 -0.0259486 0
0.684719 -0.302405 0
0.892419 -0.0903669 0
-0.417999 -0.445518 0
-0.388741 0.762357 0
0.394661 -0.823149 0
-0.342137 -0.561448 0
0.988186 0.584709 0
-0.543364 -0.80751 0
-0.66474 0.589983 0
0.466019 -0.224318 0
0.0991922 0.006283 0
-0.385092 -0.703507 0
0.520487 -0.0665074 0
0.788144 0.0957441 0
-0.701267 -0.45893 0
0.181145 -0.305233 0
0.636149 -0.18236 0
-0.566011 -0.271378 0
0.320035 -0.400888 0
0.962432 -0.386304 0
-0.380113 -0.036 0
-0.148273 0.109042 0
0.224737 -0.272901 0
-0.18902 -0.175814 0
-0.155968 -0.317067 0
0.181848 -0.544814 0
0.0890696 -0.455173 0
0.0308638 -0.281616 0
0.140946 -0.254729 0
-0.0729788 -0.40145 0
-0.198021 -0.333238 0
0.154105 -0.201787 0
0.273224 -0.491318 0
-0.0414459 -0.62039 0
-0.109956 -0.288527 0
0.109364 -0.191041 0
0.067174 -0.454027 0
-0.100842 -0.482109 0
0.00241534 -0.352216 0
0.121089 -0.34091 0
-0.00958044 -0.340072 0
-0.113569 -0.356143 0
-0.0238154 -0.378677 0
0.0478321 -0.367371 0
0.0152047 -0.376764 0
-0.0390203 -0.385732 0
-0.0486631 -0.333409 0
-0.00527665 -0.317282 0
0.026113 -0.338948 0
-0.00444878 -0.324587 0
-0.0379364 -0.321983 0
-0.0119173 -0.362755 0
0.0187687 -0.342708 0
-0.00843014 -0.304582 0
-0.0446983 -0.325022 0
-0.0331074 -0.339721 0
-0.0059963 -0.321629 0
-0.00674336 -0.323721 0
-0.0221539 -0.369759 0
-0.0309053 -0.387045 0
-0.0328869 -0.360239 0
-0.0343583 -0.345812 0
-0.0318889 -0.356881 0
-0.0221252 -0.38191 0
-0.0143753 -0.376681 0
-0.0171966 -0.347869 0
-0.0233564 -0.324405 0
-0.022537 -0.32114 0
-0.0150058 -0.330851 0
-0.00694645 -0.338813 0
-0.00281 -0.339949 0
-0.00202558 -0.337459 0
0.546971 0.305727 0
-1.12838 0.117804 0
-0.0998121 -0.462853 0
-0.165565 1.03775 0
-0.416 0.657 0
-0.218891 0.0120386 0
-0.964896 -1.01415 0
0.00867239 -0.411399 0
0.206367 -0.0836852 0
0.198835 0.338754 0
-0.370457 0.256753 0
0.332753 -0.449947 0
-0.999217 0.657887 0
-0.38001 -0.131317 0
0.63922 0.346472 0
0.377012 -0.64811 0
-0.647548 -1.14179 0
0.971559 0.560402 0
-0.186066 0.0392919 0
0.742041 -0.132565 0
-1.172 -0.435656 0
-0.0275305 -0.646506 0
0.212201 1.33898 0
-0.02331 -0.116351 0
-0.136522 -0.245293 0
-0.721328 -1.35796 0
0.107145 0.202745 0
0.24458 0.298345 0
-0.134411 0.0712819 0